# vtk DataFile Version 4.0
 
ASCII
DATASET UNSTRUCTURED_GRID
POINTS 51 float
0.002990470267832279 -0.0073690665885806075 0.0010379160521551967
0.002663540421053767 -0.0111513277515769 -0.0006393296644091606
0.0024158067535609007 -0.014931445941329002 -0.0021413841750472784
0.0021610232070088387 -0.01858578808605671 -0.0037333797663450237
0.0018239807104691865 -0.022181887179613113 -0.005270495545119047
0.0014375883620232344 -0.02573207952082157 -0.006726270075887442
0.0011537274112924933 -0.02912413142621517 -0.008341395296156406
0.0011058691889047623 -0.03242538869380951 -0.009971441701054573
0.0012308575678616762 -0.03572557121515274 -0.01142401248216629
0.0014622097369283438 -0.03889448568224907 -0.012978299520909786
0.0017137653194367886 -0.04198246821761131 -0.014526356011629105
0.0019408058142289517 -0.0450415313243866 -0.01595664583146572
0.0021194086875766516 -0.04803009331226349 -0.017358340322971344
0.0022329261992126703 -0.05092312395572662 -0.01878512278199196
0.0022873322013765574 -0.05373037606477737 -0.020216066390275955
0.002315010642632842 -0.05647401139140129 -0.021603653207421303
0.0023268242366611958 -0.05916817486286163 -0.022917550057172775
0.002347409725189209 -0.06181612238287926 -0.02415076643228531
0.002370904665440321 -0.06440626829862595 -0.025328146293759346
0.002401149133220315 -0.06692466884851456 -0.026479607447981838
0.0024429464247077703 -0.06936252862215042 -0.02762401103973389
0.0024758127983659506 -0.07171793282032013 -0.028765445575118065
0.0025140612851828337 -0.07399792969226837 -0.029888818040490147
0.0025619138032197952 -0.07620987296104431 -0.03097832202911377
0.0026071176398545504 -0.07835856825113297 -0.032023705542087555
0.0026486441493034363 -0.08044756948947906 -0.033017292618751526
0.0026914223562926054 -0.08247863501310349 -0.03395535424351692
0.0027327577117830515 -0.08445081859827042 -0.03483988717198372
0.0027675682213157415 -0.08636118471622467 -0.03567720949649811
0.0027959367725998163 -0.08820561319589615 -0.036476150155067444
0.002822769805788994 -0.08997969329357147 -0.037246182560920715
0.002852949546650052 -0.09167969226837158 -0.03799527511000633
0.0028871840331703424 -0.09330324828624725 -0.03872852027416229
0.0029206497129052877 -0.09484962373971939 -0.03944750502705574
0.0029517675284296274 -0.09632015228271484 -0.04014935344457626
0.0029838785994797945 -0.09771803021430969 -0.04082721471786499
0.003018902847543359 -0.09904752671718597 -0.041471928358078
0.0030546479392796755 -0.10031305998563766 -0.04207402467727661
0.0030884870793670416 -0.10151751339435579 -0.04262733459472656
0.0031200633384287357 -0.10266076028347014 -0.04313210770487785
0.0031490367837250233 -0.1037394106388092 -0.04359562322497368
0.003173950593918562 -0.1047474816441536 -0.04403071105480194
0.003192906267940998 -0.10567750036716461 -0.044453393667936325
0.003204090287908912 -0.10652031004428864 -0.04488331824541092
0.0032060428056865926 -0.10726478695869447 -0.045344334095716476
0.0031979666091501713 -0.1078997328877449 -0.04586044326424599
0.0031800006981939077 -0.10841681808233261 -0.04644952714443207
0.003153338097035885 -0.10881321877241135 -0.047117624431848526
0.0031201306264847517 -0.1090933158993721 -0.04785536229610443
0.003083207178860903 -0.10926899313926695 -0.04863724485039711
0.003045693039894104 -0.10935866832733156 -0.04942377656698227

CELLS 50 150
2 0 1
2 1 2
2 2 3
2 3 4
2 4 5
2 5 6
2 6 7
2 7 8
2 8 9
2 9 10
2 10 11
2 11 12
2 12 13
2 13 14
2 14 15
2 15 16
2 16 17
2 17 18
2 18 19
2 19 20
2 20 21
2 21 22
2 22 23
2 23 24
2 24 25
2 25 26
2 26 27
2 27 28
2 28 29
2 29 30
2 30 31
2 31 32
2 32 33
2 33 34
2 34 35
2 35 36
2 36 37
2 37 38
2 38 39
2 39 40
2 40 41
2 41 42
2 42 43
2 43 44
2 44 45
2 45 46
2 46 47
2 47 48
2 48 49
2 49 50

CELL_TYPES 50
4
4
4
4
4
4
4
4
4
4
4
4
4
4
4
4
4
4
4
4
4
4
4
4
4
4
4
4
4
4
4
4
4
4
4
4
4
4
4
4
4
4
4
4
4
4
4
4
4
4

POINT_DATA 51

SCALARS zone float
LOOKUP_TABLE default
1.0
1.0
1.0
1.0
1.0
1.0
1.0
1.0
1.0
1.0
1.0
1.0
1.0
1.0
1.0
1.0
1.0
1.0
1.0
1.0
1.0
1.0
1.0
1.0
1.0
1.0
1.0
1.0
1.0
1.0
1.0
1.0
1.0
1.0
1.0
1.0
1.0
1.0
1.0
1.0
1.0
1.0
1.0
1.0
1.0
1.0
1.0
1.0
1.0
1.0
1.0

VECTORS normals float
-0.00016346495249308646 -0.001891130465082824 -0.0008386228582821786
-0.00028733181534335017 -0.0037811899092048407 -0.0015896500553935766
-0.0002512586652301252 -0.0037172308657318354 -0.0015470250509679317
-0.0002959130215458572 -0.0036252206191420555 -0.0015645556850358844
-0.0003617173351813108 -0.003573145717382431 -0.001496445038355887
-0.000335126620484516 -0.0034711221233010288 -0.0015354498755186796
-0.00016585958655923605 -0.003346654353663325 -0.0016225860454142094
3.856507100863382e-5 -0.003300719195976854 -0.001541308593004942
0.00017817027401179075 -0.0032345475628972054 -0.001503428560681641
0.0002414538903394714 -0.003128449199721217 -0.0015511717647314072
0.00023929805320221928 -0.0030735242180526257 -0.0014891730388626456
0.00020282164041418582 -0.0030238134786486626 -0.0014159925049170852
0.0001460601488361135 -0.002940795384347439 -0.0014142391737550497
8.396180783165619e-5 -0.002850141143426299 -0.0014288622187450528
4.104220715817064e-5 -0.0027754444163292646 -0.001409264630638063
1.9746014004340395e-5 -0.0027188980020582676 -0.0013507427647709846
1.6199513993342407e-5 -0.0026710552629083395 -0.0012735564960166812
2.2040156181901693e-5 -0.0026190492790192366 -0.0012052980018779635
2.6869760404224508e-5 -0.0025542748626321554 -0.0011644212063401937
3.6020985135110095e-5 -0.0024781282991170883 -0.0011479324894025922
3.733187259058468e-5 -0.002396630821749568 -0.0011429188307374716
3.555733201210387e-5 -0.0023176989052444696 -0.0011324031511321664
4.305047696107067e-5 -0.0022459712345153093 -0.0011064379941672087
4.652824645745568e-5 -0.0021803195122629404 -0.0010674430523067713
4.336517667979933e-5 -0.0021188471000641584 -0.0010194854112342
4.2152376408921555e-5 -0.0020600336138159037 -0.0009658256894908844
4.205681398161687e-5 -0.0020016254857182503 -0.0009112965199165046
3.8072852476034313e-5 -0.0019412776455283163 -0.0008609271026216447
3.158946492476389e-5 -0.001877397415228188 -0.0008181330631487072
2.760080860753078e-5 -0.0018092516111209989 -0.0007844864740036428
2.850641067198012e-5 -0.0017370389541611075 -0.0007595614879392087
3.2207175536314026e-5 -0.001661779824644327 -0.0007411695551127195
3.3850083127617836e-5 -0.001584964455105364 -0.0007261150167323649
3.2291711249854416e-5 -0.0015084497863426805 -0.0007104154792614281
3.161442145938054e-5 -0.0014342023059725761 -0.0006898540887050331
3.356763409101404e-5 -0.001363687333650887 -0.0006612883880734444
3.538468081387691e-5 -0.0012975168647244573 -0.0006234057364054024
3.4792101359926164e-5 -0.0012349929893389344 -0.000577702943701297
3.270775778219104e-5 -0.0011738489847630262 -0.0005290409317240119
3.0274881282821298e-5 -0.0011109490878880024 -0.00048414451885037124
2.6943627744913098e-5 -0.0010433612624183297 -0.000449301500339061
2.1934773030807264e-5 -0.000969046144746244 -0.00042888504685834056
1.506981334387092e-5 -0.0008864137926138936 -0.00042630505049601197
6.568267963302787e-6 -0.0007936417823657393 -0.00044546960270963615
-3.061904180867714e-6 -0.0006897121202200651 -0.0004885618109256029
-1.3021096492593642e-5 -0.0005760163767263293 -0.0005525974556803703
-2.2314161469694227e-5 -0.000456744572147727 -0.0006285910494625568
-2.9934990379842926e-5 -0.00033825080026872456 -0.000702916004229337
-3.506556458887644e-5 -0.0002278855245094746 -0.0007598094525747001
-3.721884422702715e-5 -0.00013267286703921854 -0.0007842080085538328
-1.8757042198558338e-5 -4.483553857426159e-5 -0.00039326641126535833

CELL_DATA 50

VECTORS liftinglineloading               float
0.09739948809146881 0.05083234608173371 -0.08804421126842499
0.11873237788677217 0.07211511582136154 -0.12490704655647276
-0.05723848193883896 0.02680294215679169 -0.046424057334661484
0.17836958169937134 0.043205276131629944 -0.07483373582363129
0.1433836668729782 0.08682046085596085 -0.15037743747234344
-0.4671807587146759 0.1790112406015396 -0.31005656719207764
-1.625012755393982 0.370795875787735 -0.6422373056411743
-2.8223533630371094 0.5362451672554016 -0.9288038611412048
-4.029193878173828 0.6954759359359741 -1.2045997381210327
-5.443100929260254 0.8550798296928406 -1.4810417890548706
-6.770633220672607 0.9864106178283691 -1.7085133790969846
-8.147089958190918 1.1158537864685059 -1.9327154159545898
-9.103819847106934 1.2007057666778564 -2.079683303833008
-9.670029640197754 1.228003740310669 -2.126964807510376
-10.07146167755127 1.224694848060608 -2.1212337017059326
-10.921650886535645 1.2541568279266357 -2.1722633838653564
-11.25499153137207 1.2271404266357422 -2.12546968460083
-11.900885581970215 1.2453992366790771 -2.157094717025757
-12.234867095947266 1.2243297100067139 -2.1206014156341553
-12.767215728759766 1.230108618736267 -2.130610466003418
-13.021224021911621 1.2159314155578613 -2.1060550212860107
-13.478636741638184 1.208383560180664 -2.0929818153381348
-13.408098220825194 1.1413861513137817 -1.9769387245178225
-13.628983497619629 1.118670105934143 -1.9375934600830078
-13.764638900756834 1.074426531791687 -1.860961437225342
-13.807519912719727 1.0444918870925903 -1.8091129064559937
-14.357528686523438 1.033957839012146 -1.790867567062378
-14.693249702453613 1.0039836168289185 -1.7389507293701172
-14.89543628692627 0.9846815466880798 -1.7055184841156004
-15.124181747436525 0.9469817876815796 -1.6402205228805542
-15.726408004760742 0.9231327772140503 -1.5989129543304443
-16.089338302612305 0.8823160529136659 -1.5282162427902222
-16.60157012939453 0.8385764956474303 -1.4524571895599365
-16.710996627807617 0.7857521176338196 -1.3609625101089478
-16.531871795654297 0.7430111765861511 -1.2869330644607544
-16.47550392150879 0.7119845747947693 -1.2331933975219727
-16.420604705810547 0.6823803186416626 -1.181917428970337
-16.133338928222656 0.6669235229492188 -1.1551454067230225
-15.864616394042969 0.6630100607872009 -1.1483670473098755
-15.629068374633789 0.6556576490402222 -1.1356323957443237
-15.38163948059082 0.6515425443649292 -1.128504753112793
-14.346306800842283 0.6275134086608887 -1.0868850946426392
-12.923866271972656 0.7027443647384644 -1.2171889543533325
-11.0024995803833 0.6880605816841125 -1.1917558908462524
-9.244869232177734 0.7859870195388794 -1.3613694906234741
-7.410069465637207 0.8274368047714233 -1.4331626892089844
-5.757967948913574 0.8001818656921387 -1.385955572128296
-4.156144142150879 0.7321857213973999 -1.2681828737258911
-2.7644314765930176 0.6546859741210938 -1.1339493989944458
-1.2670999765396118 0.5781443119049072 -1.0013753175735474