# vtk DataFile Version 4.0
 
ASCII
DATASET UNSTRUCTURED_GRID
POINTS 51 float
0.002990470267832279 -0.005531834438443184 -0.004977872595191002
0.002663540421053767 -0.006678180303424597 -0.008953365497291088
0.0024158067535609007 -0.007957353256642818 -0.012814606539905073
0.0021610232070088387 -0.00908678025007248 -0.01663731038570404
0.0018239807104691865 -0.010220808908343315 -0.02038012072443962
0.0014375883620232344 -0.011387640610337257 -0.024035479873418808
0.0011537274112924933 -0.012330750934779644 -0.027672125026583675
0.0011058691889047623 -0.01320407073944807 -0.03124880790710449
0.0012308575678616762 -0.014212652109563349 -0.0347105897963047
0.0014622097369283438 -0.015058938413858414 -0.03813719376921654
0.0017137653194367886 -0.01585797592997551 -0.04149779677391052
0.0019408058142289517 -0.016728639602661133 -0.04476055130362511
0.0021194086875766516 -0.017575889825820923 -0.04795091226696968
0.0022329261992126703 -0.0183425135910511 -0.05108422040939331
0.0022873322013765574 -0.01905081607401371 -0.054154492914676666
0.002315010642632842 -0.01975143700838089 -0.05714816227555276
0.0023268242366611958 -0.020476706326007843 -0.060056567192077644
0.002347409725189209 -0.02123407833278179 -0.06287770718336105
0.002370904665440321 -0.02199706807732582 -0.06561868637800217
0.002401149133220315 -0.022733792662620544 -0.06828803569078445
0.0024429464247077703 -0.02342415228486061 -0.07089114934206009
0.0024758127983659506 -0.02406379021704197 -0.07342919707298279
0.0025140612851828337 -0.02466878667473793 -0.07589786499738693
0.0025619138032197952 -0.025255993008613586 -0.07829263061285019
0.0026071176398545504 -0.025836333632469177 -0.08061058074235916
0.0026486441493034363 -0.026417987421154976 -0.08284951746463776
0.0026914223562926054 -0.02700493112206459 -0.08500838279724121
0.0027327577117830515 -0.027595041319727898 -0.0870877280831337
0.0027675682213157415 -0.028181573376059532 -0.08908937871456146
0.0027959367725998163 -0.028755124658346173 -0.09101583808660507
0.002822769805788994 -0.029305599629878998 -0.0928698256611824
0.002852949546650052 -0.029824502766132355 -0.09465361386537552
0.0028871840331703424 -0.03030640445649624 -0.09636864811182022
0.0029206497129052877 -0.030749620869755745 -0.09801539033651352
0.0029517675284296274 -0.031157210469245907 -0.09959302097558975
0.0029838785994797945 -0.03153647854924202 -0.10109958052635193
0.003018902847543359 -0.031897179782390594 -0.10253244638442993
0.0030546479392796755 -0.03224942088127136 -0.10388892143964767
0.0030884870793670416 -0.03259976580739021 -0.10516724735498428
0.0031200633384287357 -0.032947953790426254 -0.10636749118566513
0.0031490367837250233 -0.03328622132539749 -0.10749172419309617
0.003173950593918562 -0.033600904047489166 -0.10854361951351166
0.003192906267940998 -0.033874914050102234 -0.10952775180339813
0.003204090287908912 -0.03408731892704964 -0.11044973134994507
0.0032060428056865926 -0.03421270102262497 -0.11131636798381805
0.0031979666091501713 -0.034225475043058395 -0.11213451623916626
0.0031800006981939077 -0.03410658240318298 -0.11290927976369858
0.003153338097035885 -0.03384959697723389 -0.1136423870921135
0.0031201306264847517 -0.033464498817920685 -0.11433116346597672
0.003083207178860903 -0.03297846391797066 -0.11496832221746445
0.003045693039894104 -0.032433584332466125 -0.11554259061813356

CELLS 50 150
2 0 1
2 1 2
2 2 3
2 3 4
2 4 5
2 5 6
2 6 7
2 7 8
2 8 9
2 9 10
2 10 11
2 11 12
2 12 13
2 13 14
2 14 15
2 15 16
2 16 17
2 17 18
2 18 19
2 19 20
2 20 21
2 21 22
2 22 23
2 23 24
2 24 25
2 25 26
2 26 27
2 27 28
2 28 29
2 29 30
2 30 31
2 31 32
2 32 33
2 33 34
2 34 35
2 35 36
2 36 37
2 37 38
2 38 39
2 39 40
2 40 41
2 41 42
2 42 43
2 43 44
2 44 45
2 45 46
2 46 47
2 47 48
2 48 49
2 49 50

CELL_TYPES 50
4
4
4
4
4
4
4
4
4
4
4
4
4
4
4
4
4
4
4
4
4
4
4
4
4
4
4
4
4
4
4
4
4
4
4
4
4
4
4
4
4
4
4
4
4
4
4
4
4
4

POINT_DATA 51

SCALARS zone float
LOOKUP_TABLE default
1.0
1.0
1.0
1.0
1.0
1.0
1.0
1.0
1.0
1.0
1.0
1.0
1.0
1.0
1.0
1.0
1.0
1.0
1.0
1.0
1.0
1.0
1.0
1.0
1.0
1.0
1.0
1.0
1.0
1.0
1.0
1.0
1.0
1.0
1.0
1.0
1.0
1.0
1.0
1.0
1.0
1.0
1.0
1.0
1.0
1.0
1.0
1.0
1.0
1.0
1.0

VECTORS normals float
-0.00016346495249308646 -0.0005731728742830455 -0.001987746451050043
-0.00028733181534335017 -0.0012127594090998173 -0.003918366972357035
-0.0002512586652301252 -0.0012042999733239412 -0.003841972444206476
-0.0002959130215458572 -0.0011317277094349265 -0.0037827570922672753
-0.0003617173351813108 -0.0011504304129630327 -0.0036990847438573837
-0.000335126620484516 -0.00105497136246413 -0.0036460019182413816
-0.00016585958655923605 -0.0009082148899324238 -0.0036066642496734853
3.856507100863382e-5 -0.0009409504709765315 -0.0035192316863685846
0.00017817027401179075 -0.0009274340118281542 -0.0034441924653947353
0.0002414538903394714 -0.0008226617937907577 -0.003393605118617416
0.00023929805320221928 -0.0008348504779860378 -0.0033116780687123537
0.00020282164041418582 -0.0008589565986767411 -0.0032265577465295787
0.0001460601488361135 -0.0008069368195720017 -0.0031618354842066765
8.396180783165619e-5 -0.0007374634733423591 -0.0031017898581922054
4.104220715817064e-5 -0.0007044618832878768 -0.0030319716315716505
1.9746014004340395e-5 -0.0007129450677894056 -0.002951037371531129
1.6199513993342407e-5 -0.0007413202547468245 -0.0028647733852267265
2.2040156181901693e-5 -0.0007601805846206844 -0.0027810586616396904
2.6869760404224508e-5 -0.0007498579216189682 -0.0027051635552197695
3.6020985135110095e-5 -0.0007135428604669869 -0.0026362331118434668
3.733187259058468e-5 -0.0006649980205111206 -0.0025705797597765923
3.555733201210387e-5 -0.000622316962108016 -0.002503355033695698
4.305047696107067e-5 -0.000596101745031774 -0.002431718399748206
4.652824645745568e-5 -0.0005837735370732844 -0.0023563606664538383
4.336517667979933e-5 -0.0005809975555166602 -0.0022784436587244272
4.2152376408921555e-5 -0.0005842986283823848 -0.0021988980006426573
4.205681398161687e-5 -0.0005885264254175127 -0.0021191041450947523
3.8072852476034313e-5 -0.0005883208359591663 -0.0020404981914907694
3.158946492476389e-5 -0.0005800414946861565 -0.0019640557002276182
2.760080860753078e-5 -0.000562013010494411 -0.00189022533595562
2.850641067198012e-5 -0.000534689286723733 -0.0018188856774941085
3.2207175536314026e-5 -0.0005004026461392641 -0.0017494118073955178
3.3850083127617836e-5 -0.00046255911001935607 -0.001680890913121402
3.2291711249854416e-5 -0.0004254030354786664 -0.0016121858498081565
3.161442145938054e-5 -0.00039342857780866325 -0.0015420924173668027
3.356763409101404e-5 -0.0003699850058183074 -0.0014697130536660552
3.538468081387691e-5 -0.00035647122422233224 -0.0013946730177849531
3.4792101359926164e-5 -0.00035129202296957374 -0.001317399786785245
3.270775778219104e-5 -0.0003492667165119201 -0.001239281496964395
3.0274881282821298e-5 -0.0003432281082496047 -0.0011622384190559387
2.6943627744913098e-5 -0.0003264747792854905 -0.0010880664922297
2.1934773030807264e-5 -0.00029434586758725345 -0.0010180143872275949
1.506981334387092e-5 -0.00024320717784576115 -0.0009530559764243662
6.568267963302787e-6 -0.00016889357357285917 -0.0008943072170950472
-3.061904180867714e-6 -6.907831266289577e-5 -0.000842391629703343
-1.3021096492593642e-5 5.305804734234698e-5 -0.0007964569376781583
-2.2314161469694227e-5 0.0001879389164969325 -0.000753937172703445
-2.9934990379842926e-5 0.0003210415015928447 -0.0007109408616088331
-3.506556458887644e-5 0.0004355658311396838 -0.0006629665731452405
-3.721884422702715e-5 0.000515457708388567 -0.0006057125283405185
-1.8757042198558338e-5 0.0002724398218560964 -0.000287132803350687

CELL_DATA 50

VECTORS liftinglineloading               float
0.1295623928308487 0.12148871272802353 -0.02142173796892166
0.1985173374414444 0.210803285241127 -0.03717030584812164
-0.10436119884252547 0.05463482812047005 -0.009633594192564487
0.059705458581447594 0.08429137617349625 -0.014862843789160252
0.367351770401001 0.09852399677038193 -0.017372438684105873
-0.10658226907253264 0.25277993083000183 -0.044571924954652786
-1.1657902002334595 0.6156543493270874 -0.10855647176504135
-2.3031880855560303 0.9327482581138612 -0.1644686907529831
-3.5523464679718018 1.277051568031311 -0.22517864406108856
-5.100832939147949 1.6326613426208496 -0.2878822386264801
-6.447576999664307 1.9062637090682981 -0.3361257314682007
-7.847419738769531 2.1689109802246094 -0.382437527179718
-8.817154884338379 2.3429088592529297 -0.41311803460121155
-9.409307479858398 2.4030563831329346 -0.42372366786003113
-9.805337905883789 2.395578145980835 -0.4224050641059876
-10.687911987304688 2.4620912075042725 -0.4341331124305725
-11.034818649291992 2.4144022464752197 -0.42572423815727234
-11.702984809875488 2.4549453258514404 -0.43287307024002075
-12.06809139251709 2.421818494796753 -0.4270319640636444
-12.643399238586426 2.438650608062744 -0.4299999177455902
-12.944344520568848 2.4140729904174805 -0.42566618323326116
-13.453348159790039 2.401522397994995 -0.42345321178436285
-13.477439880371096 2.2744646072387695 -0.4010494649410248
-13.712479591369629 2.228667974472046 -0.392974317073822
-13.839282035827638 2.139854669570923 -0.37731412053108215
-14.091739654541017 2.0837738513946533 -0.3674255609512329
-14.509949684143066 2.0569210052490234 -0.36269068717956543
-14.805489540100096 1.9949861764907837 -0.35176989436149597
-14.939215660095217 1.9543668031692503 -0.3446075916290283
-15.071467399597168 1.8781418800354006 -0.3311671018600464
-15.585064888000488 1.8329383134841917 -0.3231964707374573
-15.90046501159668 1.7543034553527832 -0.3093310296535492
-16.331457138061523 1.6673579216003416 -0.29400017857551575
-16.373592376708984 1.5684739351272583 -0.27656427025794983
-16.141759872436523 1.4856157302856445 -0.261954128742218
-16.015880584716797 1.425566554069519 -0.2513658404350281
-15.928269386291506 1.3651988506317139 -0.2407213896512985
-15.64469909667969 1.3339427709579468 -0.2352100908756256
-15.35550022125244 1.3232784271240234 -0.23332968354225161
-15.043418884277344 1.3077716827392578 -0.23059543967247012
-14.84252643585205 1.298342227935791 -0.22893276810646057
-13.841028213500975 1.2484902143478394 -0.22014249861240387
-12.503087997436523 1.385489583015442 -0.24429920315742493
-10.635150909423828 1.3487926721572876 -0.23782853782176974
-8.931203842163086 1.5287911891937256 -0.2695671319961548
-7.115728855133057 1.6084668636322021 -0.2836160957813263
-5.515950679779053 1.5524312257766724 -0.27373552322387695
-3.9154703617095947 1.410517692565918 -0.24871231615543365
-2.591628313064575 1.2597976922988892 -0.22213631868362424
-1.1821174621582031 1.1122119426727295 -0.1961129754781723