# vtk DataFile Version 4.0
 
ASCII
DATASET UNSTRUCTURED_GRID
POINTS 51 float
0.002990470267832279 0.004977872595191002 -0.005531834438443184
0.002663540421053767 0.008953365497291088 -0.006678180303424597
0.0024158067535609007 0.012814606539905073 -0.007957353256642818
0.0021610232070088387 0.01663731038570404 -0.00908678025007248
0.0018239807104691865 0.02038012072443962 -0.010220808908343315
0.0014375883620232344 0.024035479873418808 -0.011387640610337257
0.0011537274112924933 0.027672125026583675 -0.012330750934779644
0.0011058691889047623 0.03124880790710449 -0.01320407073944807
0.0012308575678616762 0.0347105897963047 -0.014212652109563349
0.0014622097369283438 0.03813719376921654 -0.015058938413858414
0.0017137653194367886 0.04149779677391052 -0.01585797592997551
0.0019408058142289517 0.04476055130362511 -0.016728639602661133
0.0021194086875766516 0.04795091226696968 -0.017575889825820923
0.0022329261992126703 0.05108422040939331 -0.0183425135910511
0.0022873322013765574 0.054154492914676666 -0.01905081607401371
0.002315010642632842 0.05714816227555276 -0.01975143700838089
0.0023268242366611958 0.060056567192077644 -0.020476706326007843
0.002347409725189209 0.06287770718336105 -0.02123407833278179
0.002370904665440321 0.06561868637800217 -0.02199706807732582
0.002401149133220315 0.06828803569078445 -0.022733792662620544
0.0024429464247077703 0.07089114934206009 -0.02342415228486061
0.0024758127983659506 0.07342919707298279 -0.02406379021704197
0.0025140612851828337 0.07589786499738693 -0.02466878667473793
0.0025619138032197952 0.07829263061285019 -0.025255993008613586
0.0026071176398545504 0.08061058074235916 -0.025836333632469177
0.0026486441493034363 0.08284951746463776 -0.026417987421154976
0.0026914223562926054 0.08500838279724121 -0.02700493112206459
0.0027327577117830515 0.0870877280831337 -0.027595041319727898
0.0027675682213157415 0.08908937871456146 -0.028181573376059532
0.0027959367725998163 0.09101583808660507 -0.028755124658346173
0.002822769805788994 0.0928698256611824 -0.029305599629878998
0.002852949546650052 0.09465361386537552 -0.029824502766132355
0.0028871840331703424 0.09636864811182022 -0.03030640445649624
0.0029206497129052877 0.09801539033651352 -0.030749620869755745
0.0029517675284296274 0.09959302097558975 -0.031157210469245907
0.0029838785994797945 0.10109958052635193 -0.03153647854924202
0.003018902847543359 0.10253244638442993 -0.031897179782390594
0.0030546479392796755 0.10388892143964767 -0.03224942088127136
0.0030884870793670416 0.10516724735498428 -0.03259976580739021
0.0031200633384287357 0.10636749118566513 -0.032947953790426254
0.0031490367837250233 0.10749172419309617 -0.03328622132539749
0.003173950593918562 0.10854361951351166 -0.033600904047489166
0.003192906267940998 0.10952775180339813 -0.033874914050102234
0.003204090287908912 0.11044973134994507 -0.03408731892704964
0.0032060428056865926 0.11131636798381805 -0.03421270102262497
0.0031979666091501713 0.11213451623916626 -0.034225475043058395
0.0031800006981939077 0.11290927976369858 -0.03410658240318298
0.003153338097035885 0.1136423870921135 -0.03384959697723389
0.0031201306264847517 0.11433116346597672 -0.033464498817920685
0.003083207178860903 0.11496832221746445 -0.03297846391797066
0.003045693039894104 0.11554259061813356 -0.032433584332466125

CELLS 50 150
2 0 1
2 1 2
2 2 3
2 3 4
2 4 5
2 5 6
2 6 7
2 7 8
2 8 9
2 9 10
2 10 11
2 11 12
2 12 13
2 13 14
2 14 15
2 15 16
2 16 17
2 17 18
2 18 19
2 19 20
2 20 21
2 21 22
2 22 23
2 23 24
2 24 25
2 25 26
2 26 27
2 27 28
2 28 29
2 29 30
2 30 31
2 31 32
2 32 33
2 33 34
2 34 35
2 35 36
2 36 37
2 37 38
2 38 39
2 39 40
2 40 41
2 41 42
2 42 43
2 43 44
2 44 45
2 45 46
2 46 47
2 47 48
2 48 49
2 49 50

CELL_TYPES 50
4
4
4
4
4
4
4
4
4
4
4
4
4
4
4
4
4
4
4
4
4
4
4
4
4
4
4
4
4
4
4
4
4
4
4
4
4
4
4
4
4
4
4
4
4
4
4
4
4
4

POINT_DATA 51

SCALARS zone float
LOOKUP_TABLE default
1.0
1.0
1.0
1.0
1.0
1.0
1.0
1.0
1.0
1.0
1.0
1.0
1.0
1.0
1.0
1.0
1.0
1.0
1.0
1.0
1.0
1.0
1.0
1.0
1.0
1.0
1.0
1.0
1.0
1.0
1.0
1.0
1.0
1.0
1.0
1.0
1.0
1.0
1.0
1.0
1.0
1.0
1.0
1.0
1.0
1.0
1.0
1.0
1.0
1.0
1.0

VECTORS normals float
-0.00016346495249308646 0.001987746451050043 -0.0005731728742830455
-0.00028733181534335017 0.003918366972357035 -0.0012127594090998173
-0.0002512586652301252 0.003841972444206476 -0.0012042999733239412
-0.0002959130215458572 0.0037827570922672753 -0.0011317277094349265
-0.0003617173351813108 0.0036990847438573837 -0.0011504304129630327
-0.000335126620484516 0.0036460019182413816 -0.00105497136246413
-0.00016585958655923605 0.0036066642496734853 -0.0009082148899324238
3.856507100863382e-5 0.0035192316863685846 -0.0009409504709765315
0.00017817027401179075 0.0034441924653947353 -0.0009274340118281542
0.0002414538903394714 0.003393605118617416 -0.0008226617937907577
0.00023929805320221928 0.0033116780687123537 -0.0008348504779860378
0.00020282164041418582 0.0032265577465295787 -0.0008589565986767411
0.0001460601488361135 0.0031618354842066765 -0.0008069368195720017
8.396180783165619e-5 0.0031017898581922054 -0.0007374634733423591
4.104220715817064e-5 0.0030319716315716505 -0.0007044618832878768
1.9746014004340395e-5 0.002951037371531129 -0.0007129450677894056
1.6199513993342407e-5 0.0028647733852267265 -0.0007413202547468245
2.2040156181901693e-5 0.0027810586616396904 -0.0007601805846206844
2.6869760404224508e-5 0.0027051635552197695 -0.0007498579216189682
3.6020985135110095e-5 0.0026362331118434668 -0.0007135428604669869
3.733187259058468e-5 0.0025705797597765923 -0.0006649980205111206
3.555733201210387e-5 0.002503355033695698 -0.000622316962108016
4.305047696107067e-5 0.002431718399748206 -0.000596101745031774
4.652824645745568e-5 0.0023563606664538383 -0.0005837735370732844
4.336517667979933e-5 0.0022784436587244272 -0.0005809975555166602
4.2152376408921555e-5 0.0021988980006426573 -0.0005842986283823848
4.205681398161687e-5 0.0021191041450947523 -0.0005885264254175127
3.8072852476034313e-5 0.0020404981914907694 -0.0005883208359591663
3.158946492476389e-5 0.0019640557002276182 -0.0005800414946861565
2.760080860753078e-5 0.00189022533595562 -0.000562013010494411
2.850641067198012e-5 0.0018188856774941085 -0.000534689286723733
3.2207175536314026e-5 0.0017494118073955178 -0.0005004026461392641
3.3850083127617836e-5 0.001680890913121402 -0.00046255911001935607
3.2291711249854416e-5 0.0016121858498081565 -0.0004254030354786664
3.161442145938054e-5 0.0015420924173668027 -0.00039342857780866325
3.356763409101404e-5 0.0014697130536660552 -0.0003699850058183074
3.538468081387691e-5 0.0013946730177849531 -0.00035647122422233224
3.4792101359926164e-5 0.001317399786785245 -0.00035129202296957374
3.270775778219104e-5 0.001239281496964395 -0.0003492667165119201
3.0274881282821298e-5 0.0011622384190559387 -0.0003432281082496047
2.6943627744913098e-5 0.0010880664922297 -0.0003264747792854905
2.1934773030807264e-5 0.0010180143872275949 -0.00029434586758725345
1.506981334387092e-5 0.0009530559764243662 -0.00024320717784576115
6.568267963302787e-6 0.0008943072170950472 -0.00016889357357285917
-3.061904180867714e-6 0.000842391629703343 -6.907831266289577e-5
-1.3021096492593642e-5 0.0007964569376781583 5.305804734234698e-5
-2.2314161469694227e-5 0.000753937172703445 0.0001879389164969325
-2.9934990379842926e-5 0.0007109408616088331 0.0003210415015928447
-3.506556458887644e-5 0.0006629665731452405 0.0004355658311396838
-3.721884422702715e-5 0.0006057125283405185 0.000515457708388567
-1.8757042198558338e-5 0.000287132803350687 0.0002724398218560964

CELL_DATA 50

VECTORS liftinglineloading               float
0.05316348001360894 0.012113627046346664 0.06869979202747345
-0.01643463596701622 0.0012349056778475642 0.007003498263657094
0.06460092216730118 0.012748869135975836 0.0723024308681488
0.0838676169514656 0.02542768605053425 0.14420758187770844
-0.22648632526397702 0.04624608904123306 0.2622745931148529
-0.9597830176353455 0.08506018668413162 0.4824002683162689
-2.2145323753356934 0.15074460208415985 0.8549151420593263
-3.2963593006134033 0.2022908329963684 1.1472482681274414
-4.277413368225098 0.24700742959976196 1.4008487462997437
-5.54662561416626 0.2972865402698517 1.6859956979751587
-6.73474645614624 0.3385869562625885 1.9202220439910889
-7.990568161010741 0.38058701157569885 2.158416271209717
-8.872897148132324 0.40863013267517095 2.3174564838409424
-9.410788536071777 0.4180124402046203 2.370666265487671
-9.798670768737793 0.417021244764328 2.3650450706481934
-10.651484489440918 0.4280393719673157 2.4275319576263428
-10.984626770019531 0.41945594549179077 2.3788528442382812
-11.61877727508545 0.4261302053928375 2.4167044162750244
-11.933172225952148 0.41955605149269104 2.379420518875122
-12.42888355255127 0.4217976331710815 2.3921332359313965
-12.632713317871094 0.41689035296440125 2.364302635192871
-13.024290084838867 0.4140065014362335 2.347947597503662
-12.91972827911377 0.3911297023296356 2.2182066440582275
-13.063121795654299 0.3829711973667145 2.1719374656677246
-13.16963577270508 0.36868661642074585 2.090925693511963
-13.35454750061035 0.3597036898136139 2.0399811267852783
-13.761127471923828 0.35561367869377136 2.0167853832244873
-14.069629669189453 0.34558403491973877 1.959904432296753
-14.276593208312988 0.33947935700416565 1.925283193588257
-14.546119689941408 0.32730528712272644 1.856240510940552
-15.266702651977537 0.32039836049079895 1.817069411277771
-15.810743331909181 0.3063586950302124 1.7374465465545652
-16.444589614868164 0.2906942665576935 1.6486091613769533
-16.665904998779297 0.2719862163066864 1.5425103902816772
-16.582590103149414 0.2565780580043793 1.455126404762268
-16.592836380004883 0.24542067945003512 1.3918498754501343
-16.615154266357422 0.23486953973770144 1.332011342048645
-16.376605987548828 0.2292826920747757 1.3003267049789429
-16.183895111083984 0.22791098058223722 1.292547345161438
-15.931023597717285 0.22564849257469177 1.2797162532806396
-15.700944900512697 0.2242402285337448 1.271729588508606
-14.679250717163088 0.21617020666599274 1.2259621620178223
-13.230255126953125 0.2436458319425583 1.3817840814590454
-11.2994384765625 0.23967580497264862 1.3592690229415894
-9.52534008026123 0.27541422843933105 1.561951756477356
-7.691960811614991 0.290149450302124 1.6455192565917969
-6.008903980255127 0.28119754791259766 1.5947505235671997
-4.370777606964111 0.2578412890434265 1.462290644645691
-2.925478458404541 0.23088213801383975 1.3093976974487305
-1.3561806678771973 0.20407453179359436 1.1573642492294312