# vtk DataFile Version 4.0
 
ASCII
DATASET UNSTRUCTURED_GRID
POINTS 51 float
0.002990470267832279 -0.0010379160521551967 -0.0073690665885806075
0.002663540421053767 0.0006393296644091606 -0.0111513277515769
0.0024158067535609007 0.0021413841750472784 -0.014931445941329002
0.0021610232070088387 0.0037333797663450237 -0.01858578808605671
0.0018239807104691865 0.005270495545119047 -0.022181887179613113
0.0014375883620232344 0.006726270075887442 -0.02573207952082157
0.0011537274112924933 0.008341395296156406 -0.02912413142621517
0.0011058691889047623 0.009971441701054573 -0.03242538869380951
0.0012308575678616762 0.01142401248216629 -0.03572557121515274
0.0014622097369283438 0.012978299520909786 -0.03889448568224907
0.0017137653194367886 0.014526356011629105 -0.04198246821761131
0.0019408058142289517 0.01595664583146572 -0.0450415313243866
0.0021194086875766516 0.017358340322971344 -0.04803009331226349
0.0022329261992126703 0.01878512278199196 -0.05092312395572662
0.0022873322013765574 0.020216066390275955 -0.05373037606477737
0.002315010642632842 0.021603653207421303 -0.05647401139140129
0.0023268242366611958 0.022917550057172775 -0.05916817486286163
0.002347409725189209 0.02415076643228531 -0.06181612238287926
0.002370904665440321 0.025328146293759346 -0.06440626829862595
0.002401149133220315 0.026479607447981838 -0.06692466884851456
0.0024429464247077703 0.02762401103973389 -0.06936252862215042
0.0024758127983659506 0.028765445575118065 -0.07171793282032013
0.0025140612851828337 0.029888818040490147 -0.07399792969226837
0.0025619138032197952 0.03097832202911377 -0.07620987296104431
0.0026071176398545504 0.032023705542087555 -0.07835856825113297
0.0026486441493034363 0.033017292618751526 -0.08044756948947906
0.0026914223562926054 0.03395535424351692 -0.08247863501310349
0.0027327577117830515 0.03483988717198372 -0.08445081859827042
0.0027675682213157415 0.03567720949649811 -0.08636118471622467
0.0027959367725998163 0.036476150155067444 -0.08820561319589615
0.002822769805788994 0.037246182560920715 -0.08997969329357147
0.002852949546650052 0.03799527511000633 -0.09167969226837158
0.0028871840331703424 0.03872852027416229 -0.09330324828624725
0.0029206497129052877 0.03944750502705574 -0.09484962373971939
0.0029517675284296274 0.04014935344457626 -0.09632015228271484
0.0029838785994797945 0.04082721471786499 -0.09771803021430969
0.003018902847543359 0.041471928358078 -0.09904752671718597
0.0030546479392796755 0.04207402467727661 -0.10031305998563766
0.0030884870793670416 0.04262733459472656 -0.10151751339435579
0.0031200633384287357 0.04313210770487785 -0.10266076028347014
0.0031490367837250233 0.04359562322497368 -0.1037394106388092
0.003173950593918562 0.04403071105480194 -0.1047474816441536
0.003192906267940998 0.044453393667936325 -0.10567750036716461
0.003204090287908912 0.04488331824541092 -0.10652031004428864
0.0032060428056865926 0.045344334095716476 -0.10726478695869447
0.0031979666091501713 0.04586044326424599 -0.1078997328877449
0.0031800006981939077 0.04644952714443207 -0.10841681808233261
0.003153338097035885 0.047117624431848526 -0.10881321877241135
0.0031201306264847517 0.04785536229610443 -0.1090933158993721
0.003083207178860903 0.04863724485039711 -0.10926899313926695
0.003045693039894104 0.04942377656698227 -0.10935866832733156

CELLS 50 150
2 0 1
2 1 2
2 2 3
2 3 4
2 4 5
2 5 6
2 6 7
2 7 8
2 8 9
2 9 10
2 10 11
2 11 12
2 12 13
2 13 14
2 14 15
2 15 16
2 16 17
2 17 18
2 18 19
2 19 20
2 20 21
2 21 22
2 22 23
2 23 24
2 24 25
2 25 26
2 26 27
2 27 28
2 28 29
2 29 30
2 30 31
2 31 32
2 32 33
2 33 34
2 34 35
2 35 36
2 36 37
2 37 38
2 38 39
2 39 40
2 40 41
2 41 42
2 42 43
2 43 44
2 44 45
2 45 46
2 46 47
2 47 48
2 48 49
2 49 50

CELL_TYPES 50
4
4
4
4
4
4
4
4
4
4
4
4
4
4
4
4
4
4
4
4
4
4
4
4
4
4
4
4
4
4
4
4
4
4
4
4
4
4
4
4
4
4
4
4
4
4
4
4
4
4

POINT_DATA 51

SCALARS zone float
LOOKUP_TABLE default
1.0
1.0
1.0
1.0
1.0
1.0
1.0
1.0
1.0
1.0
1.0
1.0
1.0
1.0
1.0
1.0
1.0
1.0
1.0
1.0
1.0
1.0
1.0
1.0
1.0
1.0
1.0
1.0
1.0
1.0
1.0
1.0
1.0
1.0
1.0
1.0
1.0
1.0
1.0
1.0
1.0
1.0
1.0
1.0
1.0
1.0
1.0
1.0
1.0
1.0
1.0

VECTORS normals float
-0.00016346495249308646 0.0008386228582821786 -0.001891130465082824
-0.00028733181534335017 0.0015896500553935766 -0.0037811899092048407
-0.0002512586652301252 0.0015470250509679317 -0.0037172308657318354
-0.0002959130215458572 0.0015645556850358844 -0.0036252206191420555
-0.0003617173351813108 0.001496445038355887 -0.003573145717382431
-0.000335126620484516 0.0015354498755186796 -0.0034711221233010288
-0.00016585958655923605 0.0016225860454142094 -0.003346654353663325
3.856507100863382e-5 0.001541308593004942 -0.003300719195976854
0.00017817027401179075 0.001503428560681641 -0.0032345475628972054
0.0002414538903394714 0.0015511717647314072 -0.003128449199721217
0.00023929805320221928 0.0014891730388626456 -0.0030735242180526257
0.00020282164041418582 0.0014159925049170852 -0.0030238134786486626
0.0001460601488361135 0.0014142391737550497 -0.002940795384347439
8.396180783165619e-5 0.0014288622187450528 -0.002850141143426299
4.104220715817064e-5 0.001409264630638063 -0.0027754444163292646
1.9746014004340395e-5 0.0013507427647709846 -0.0027188980020582676
1.6199513993342407e-5 0.0012735564960166812 -0.0026710552629083395
2.2040156181901693e-5 0.0012052980018779635 -0.0026190492790192366
2.6869760404224508e-5 0.0011644212063401937 -0.0025542748626321554
3.6020985135110095e-5 0.0011479324894025922 -0.0024781282991170883
3.733187259058468e-5 0.0011429188307374716 -0.002396630821749568
3.555733201210387e-5 0.0011324031511321664 -0.0023176989052444696
4.305047696107067e-5 0.0011064379941672087 -0.0022459712345153093
4.652824645745568e-5 0.0010674430523067713 -0.0021803195122629404
4.336517667979933e-5 0.0010194854112342 -0.0021188471000641584
4.2152376408921555e-5 0.0009658256894908844 -0.0020600336138159037
4.205681398161687e-5 0.0009112965199165046 -0.0020016254857182503
3.8072852476034313e-5 0.0008609271026216447 -0.0019412776455283163
3.158946492476389e-5 0.0008181330631487072 -0.001877397415228188
2.760080860753078e-5 0.0007844864740036428 -0.0018092516111209989
2.850641067198012e-5 0.0007595614879392087 -0.0017370389541611075
3.2207175536314026e-5 0.0007411695551127195 -0.001661779824644327
3.3850083127617836e-5 0.0007261150167323649 -0.001584964455105364
3.2291711249854416e-5 0.0007104154792614281 -0.0015084497863426805
3.161442145938054e-5 0.0006898540887050331 -0.0014342023059725761
3.356763409101404e-5 0.0006612883880734444 -0.001363687333650887
3.538468081387691e-5 0.0006234057364054024 -0.0012975168647244573
3.4792101359926164e-5 0.000577702943701297 -0.0012349929893389344
3.270775778219104e-5 0.0005290409317240119 -0.0011738489847630262
3.0274881282821298e-5 0.00048414451885037124 -0.0011109490878880024
2.6943627744913098e-5 0.000449301500339061 -0.0010433612624183297
2.1934773030807264e-5 0.00042888504685834056 -0.000969046144746244
1.506981334387092e-5 0.00042630505049601197 -0.0008864137926138936
6.568267963302787e-6 0.00044546960270963615 -0.0007936417823657393
-3.061904180867714e-6 0.0004885618109256029 -0.0006897121202200651
-1.3021096492593642e-5 0.0005525974556803703 -0.0005760163767263293
-2.2314161469694227e-5 0.0006285910494625568 -0.000456744572147727
-2.9934990379842926e-5 0.000702916004229337 -0.00033825080026872456
-3.506556458887644e-5 0.0007598094525747001 -0.0002278855245094746
-3.721884422702715e-5 0.0007842080085538328 -0.00013267286703921854
-1.8757042198558338e-5 0.00039326641126535833 -4.483553857426159e-5

CELL_DATA 50

VECTORS liftinglineloading               float
0.05192667618393899 0.05960498377680778 0.03441295400261879
-0.017242882400751114 0.005990156438201666 0.0034584186505526304
0.06559306383132935 0.06470964103937149 0.03736013174057007
0.07747378945350647 0.12933552265167236 0.0746719017624855
-0.23987743258476257 0.23495696485042572 0.13565246760845184
-0.9958598017692567 0.43419292569160456 0.25068140029907227
-2.278623342514038 0.7660911083221436 0.44230291247367853
-3.381225109100342 1.0269922018051147 0.592934250831604
-4.368960380554199 1.2503191232681274 0.721872091293335
-5.65557861328125 1.5038275718688965 0.8682352900505066
-6.847933769226074 1.70985221862793 0.9871836304664612
-8.101934432983398 1.9192419052124026 1.1080747842788696
-8.976534843444824 2.0580461025238037 1.1882134675979614
-9.501737594604492 2.1030125617980957 1.2141748666763306
-9.877657890319824 2.096198081970215 1.2102406024932861
-10.722970962524414 2.1499316692352295 1.2412636280059814
-11.046374320983887 2.1056265830993652 1.2156840562820435
-11.672568321228027 2.1380248069763184 1.2343891859054565
-11.975311279296875 2.1043171882629395 1.2149280309677124
-12.457250595092773 2.1146223545074463 1.2208778858184814
-12.640605926513672 2.088745355606079 1.2059377431869507
-13.006132125854492 2.072601079940796 1.196616768836975
-12.87796688079834 1.956989049911499 1.1298681497573853
-13.004261970520018 1.9151420593261719 1.1057077646255493
-13.066521644592285 1.842946171760559 1.0640254020690918
-13.27473258972168 1.7990460395812988 1.0386797189712524
-13.6122465133667 1.776869535446167 1.0258760452270508
-13.846813201904297 1.725468397140503 0.996199667453766
-13.98635005950928 1.6946833133697512 0.9784258604049684
-14.200496673583983 1.635356545448303 0.9441735744476317
-15.98896884918213 1.6042193174362183 0.9261964559555054
-16.341827392578125 1.5306494235992432 0.8837208151817323
-16.91767692565918 1.4532155990600586 0.8390144109725952
-17.057432174682617 1.356788158416748 0.7833420038223267
-16.907968521118164 1.2803508043289185 0.7392109036445618
-16.873003005981445 1.2253494262695312 0.7074558734893799
-16.85863494873047 1.173714518547058 0.6776443719863892
-16.582311630249023 1.146413803100586 0.6618822813034058
-16.339160919189453 1.1408377885818481 0.6586630344390869
-16.06924057006836 1.1297746896743774 0.6522757411003113
-15.818731307983397 1.1228646039962769 0.6482862234115601
-14.774974822998049 1.0826157331466675 0.6250485181808472
-13.302644729614258 1.220526099205017 0.7046710252761841
-11.349027633666992 1.2004165649414062 0.6930608153343201
-9.55313491821289 1.3786970376968384 0.7959911227226257
-7.701848030090331 1.4516940116882324 0.8381358981132508
-6.0032057762146 1.4058855772018433 0.8116884231567383
-4.353153705596924 1.2880045175552368 0.7436297535896301
-2.907559871673584 1.152334213256836 0.6653004884719849
-1.3388539552688599 1.0176513195037842 0.5875412821769714