# vtk DataFile Version 4.0
 
ASCII
DATASET UNSTRUCTURED_GRID
POINTS 51 float
0.002990470267832279 -0.007437346037477256 -0.0002574771933723241
0.002663540421053767 -0.010870895348489285 -0.0025660244282335043
0.0024158067535609007 -0.014332756400108337 -0.004701670259237289
0.0021610232070088387 -0.017655134201049805 -0.006904049776494504
0.0018239807104691865 -0.02092968299984932 -0.009042269550263882
0.0014375883620232344 -0.024173147976398468 -0.01109241135418415
0.0011537274112924933 -0.027233202010393143 -0.013272022828459738
0.0011058691889047623 -0.030201252549886703 -0.015450563281774521
0.0012308575678616762 -0.03319906070828438 -0.017454136162996292
0.0014622097369283438 -0.03604993224143982 -0.019535085186362267
0.0017137653194367886 -0.03882218524813652 -0.021595846861600876
0.0019408058142289517 -0.04158640652894974 -0.023535607382655144
0.0021194086875766516 -0.04428616538643837 -0.025434967130422596
0.0022329261992126703 -0.046887483447790146 -0.02734244242310524
0.0022873322013765574 -0.049403607845306396 -0.029239119961857796
0.002315010642632842 -0.051864609122276306 -0.031082054600119594
0.0023268242366611958 -0.05428968369960785 -0.032843828201293945
0.002347409725189209 -0.056683260947465904 -0.03451811894774437
0.002370904665440321 -0.059029608964920044 -0.03612738847732544
0.002401149133220315 -0.061309799551963806 -0.03769867122173309
0.0024429464247077703 -0.06351189315319061 -0.03924901783466339
0.0024758127983659506 -0.06563331186771393 -0.04078212380409241
0.0025140612851828337 -0.06768359243869781 -0.042284343391656876
0.0025619138032197952 -0.06967274844646454 -0.04374139755964279
0.0026071176398545504 -0.07160726189613342 -0.045144014060497284
0.0026486441493034363 -0.07349199801683426 -0.046485260128974915
0.0026914223562926054 -0.07532931119203568 -0.04776176065206528
0.0027327577117830515 -0.07711794227361679 -0.048975322395563126
0.0027675682213157415 -0.07885388284921646 -0.050131656229496
0.0027959367725998163 -0.08053155988454819 -0.05123874172568322
0.002822769805788994 -0.08214496821165085 -0.052305139601230614
0.002852949546650052 -0.08368906378746033 -0.05333805456757546
0.0028871840331703424 -0.08516062796115875 -0.054342087358236306
0.0029206497129052877 -0.08655865490436554 -0.055318672209978104
0.0029517675284296274 -0.08788497000932693 -0.05626521259546279
0.0029838785994797945 -0.08914390206336975 -0.05717551335692405
0.003018902847543359 -0.0903412476181984 -0.058041300624608994
0.0030546479392796755 -0.09148300439119339 -0.05885400623083114
0.0030884870793670416 -0.09257306903600693 -0.059608060866594315
0.0031200633384287357 -0.09361129999160767 -0.06030368804931641
0.0031490367837250233 -0.09459307044744492 -0.060947466641664505
0.003173950593918562 -0.09551028162240982 -0.06155099347233773
0.003192906267940998 -0.09635277092456818 -0.06212875247001648
0.003204090287908912 -0.09710811823606491 -0.06269849836826324
0.0032060428056865926 -0.09776122868061066 -0.06328178942203522
0.0031979666091501713 -0.09829691052436829 -0.06390031427145004
0.0031800006981939077 -0.09870384633541107 -0.06457024067640305
0.003153338097035885 -0.09897821396589279 -0.06529702246189117
0.0031201306264847517 -0.0991259515285492 -0.06607218831777573
0.003083207178860903 -0.09916318207979202 -0.06687269359827042
0.003045693039894104 -0.09911490976810455 -0.06766285002231598

CELLS 50 150
2 0 1
2 1 2
2 2 3
2 3 4
2 4 5
2 5 6
2 6 7
2 7 8
2 8 9
2 9 10
2 10 11
2 11 12
2 12 13
2 13 14
2 14 15
2 15 16
2 16 17
2 17 18
2 18 19
2 19 20
2 20 21
2 21 22
2 22 23
2 23 24
2 24 25
2 25 26
2 26 27
2 27 28
2 28 29
2 29 30
2 30 31
2 31 32
2 32 33
2 33 34
2 34 35
2 35 36
2 36 37
2 37 38
2 38 39
2 39 40
2 40 41
2 41 42
2 42 43
2 43 44
2 44 45
2 45 46
2 46 47
2 47 48
2 48 49
2 49 50

CELL_TYPES 50
4
4
4
4
4
4
4
4
4
4
4
4
4
4
4
4
4
4
4
4
4
4
4
4
4
4
4
4
4
4
4
4
4
4
4
4
4
4
4
4
4
4
4
4
4
4
4
4
4
4

POINT_DATA 51

SCALARS zone float
LOOKUP_TABLE default
1.0
1.0
1.0
1.0
1.0
1.0
1.0
1.0
1.0
1.0
1.0
1.0
1.0
1.0
1.0
1.0
1.0
1.0
1.0
1.0
1.0
1.0
1.0
1.0
1.0
1.0
1.0
1.0
1.0
1.0
1.0
1.0
1.0
1.0
1.0
1.0
1.0
1.0
1.0
1.0
1.0
1.0
1.0
1.0
1.0
1.0
1.0
1.0
1.0
1.0
1.0

VECTORS normals float
-0.00016346495249308646 -0.001716774655506015 -0.0011542736319825053
-0.00028733181534335017 -0.0034477051813155413 -0.0022220963146537542
-0.0002512586652301252 -0.0033921196591109037 -0.0021690125577151775
-0.0002959130215458572 -0.0032984630670398474 -0.002170299645513296
-0.0003617173351813108 -0.0032590066548436884 -0.0020941810216754675
-0.000335126620484516 -0.0031517597381025553 -0.0021148768719285727
-0.00016585958655923605 -0.003014052053913474 -0.0021790757309645414
3.856507100863382e-5 -0.002982928417623043 -0.002091056667268276
0.00017817027401179075 -0.002924339845776558 -0.00204226141795516
0.0002414538903394714 -0.0028115627355873585 -0.002070855349302292
0.00023929805320221928 -0.0027682380750775337 -0.0020002610981464386
0.00020282164041418582 -0.0027319903019815683 -0.0019195600179955361
0.0001460601488361135 -0.0026505382265895605 -0.001903417520225048
8.396180783165619e-5 -0.0025587219279259443 -0.0019020764157176018
4.104220715817064e-5 -0.00248856283724308 -0.0018698055064305663
1.9746014004340395e-5 -0.0024430379271507263 -0.0018023536540567875
1.6199513993342407e-5 -0.0024093249812722206 -0.0017180321738123896
2.2040156181901693e-5 -0.00236996216699481 -0.0016417799051851032
2.6869760404224508e-5 -0.0023132702335715294 -0.0015902761369943619
3.6020985135110095e-5 -0.0022411434911191463 -0.001560815260745585
3.733187259058468e-5 -0.002161754760891199 -0.0015417258255183697
3.555733201210387e-5 -0.0020858480129390955 -0.001517663593403995
4.305047696107067e-5 -0.002019718987867236 -0.0014796375762671232
4.652824645745568e-5 -0.0019618358928710222 -0.0014298346359282732
4.336517667979933e-5 -0.0019096252508461475 -0.0013719310518354177
4.2152376408921555e-5 -0.0018610231345519423 -0.001308873645029962
4.205681398161687e-5 -0.001812971313484013 -0.0012450305512174964
3.8072852476034313e-5 -0.0017622868763282895 -0.0011849469738081098
3.158946492476389e-5 -0.0017068082233890893 -0.0011317104799672961
2.760080860753078e-5 -0.0016455403529107573 -0.0010867416858673096
2.850641067198012e-5 -0.0015787529991939664 -0.0010496556060388684
3.2207175536314026e-5 -0.0015078309224918485 -0.0010184745769947767
3.3850083127617836e-5 -0.0014347967226058245 -0.000990309868939221
3.2291711249854416e-5 -0.0013621706748381257 -0.0009615622111596167
3.161442145938054e-5 -0.0012926216004416347 -0.0009284202824346721
3.356763409101404e-5 -0.0012281383387744427 -0.0008880437235347926
3.538468081387691e-5 -0.0011695513967424631 -0.0008392462041229009
3.4792101359926164e-5 -0.001115913619287312 -0.0007833806448616087
3.270775778219104e-5 -0.0010641486151143909 -0.0007248403271660209
3.0274881282821298e-5 -0.0010100004728883505 -0.0006697035860270262
2.6943627744913098e-5 -0.0009494898258708418 -0.0006236533517949283
2.1934773030807264e-5 -0.000879849074408412 -0.000590642390307039
1.506981334387092e-5 -0.0007989200530573725 -0.0005737526807934046
6.568267963302787e-6 -0.0007042295765131712 -0.000576516380533576
-3.061904180867714e-6 -0.0005943959695287049 -0.0006009067292325199
-1.3021096492593642e-5 -0.00047130783786997204 -0.000644226442091167
-2.2314161469694227e-5 -0.00034065189538523555 -0.0006983541534282267
-2.9934990379842926e-5 -0.00021105192718096075 -0.0007509737624786794
-3.506556458887644e-5 -9.24839114304632e-5 -0.0007878381293267012
-3.721884422702715e-5 5.519033948075958e-6 -0.0007953325402922928
-1.8757042198558338e-5 2.4135608327924274e-5 -0.00039507742621935904

CELL_DATA 50

VECTORS liftinglineloading               float
0.10306543111801146 0.06794759631156921 -0.08097679167985916
0.1357319951057434 0.10272000730037689 -0.12241693586111069
-0.06527870148420334 0.03337826952338219 -0.03977867215871811
0.15638777613639832 0.05492263287305832 -0.06545424461364746
0.19273288547992706 0.10241717100143433 -0.1220560371875763
-0.3978596031665802 0.2179184556007385 -0.2597050964832306
-1.5275453329086304 0.46156463027000433 -0.5500712990760803
-2.710226058959961 0.6729850172996521 -0.8020323514938354
-3.919458866119385 0.881080687046051 -1.050031065940857
-5.294924259185791 1.0835251808166504 -1.291295051574707
-6.62404489517212 1.2550264596939087 -1.4956823587417603
-8.017176628112793 1.4248456954956055 -1.6980650424957275
-8.95763111114502 1.5336079597473145 -1.827682852745056
-9.510226249694824 1.568198561668396 -1.8689062595367432
-9.880632400512695 1.5611753463745117 -1.8605363368988037
-10.7153902053833 1.599455714225769 -1.9061570167541502
-11.023301124572754 1.5647475719451904 -1.8647935390472414
-11.787978172302246 1.5953561067581177 -1.9012713432312012
-12.0868558883667 1.5680973529815674 -1.8687857389450073
-12.575624465942383 1.5747593641281128 -1.8767250776290896
-12.85519790649414 1.558302640914917 -1.8571127653121948
-13.339346885681152 1.5499969720840454 -1.847214460372925
-13.29435729980469 1.4652801752090454 -1.7462530136108396
-13.521484375 1.4365386962890625 -1.7120001316070557
-13.658223152160646 1.3806767463684082 -1.6454263925552368
-13.934879302978516 1.3460934162139893 -1.604211688041687
-14.366004943847658 1.3300261497497559 -1.5850634574890137
-14.706119537353516 1.2915335893630981 -1.5391898155212402
-14.912972450256348 1.2667361497879028 -1.5096373558044434
-15.142452239990234 1.218199372291565 -1.4517934322357178
-15.71346664428711 1.1879876852035522 -1.4157885313034058
-16.02729034423828 1.1367624998092651 -1.3547407388687134
-16.5360107421875 1.080356240272522 -1.2875183820724487
-16.628217697143555 1.0133795738220215 -1.2076987028121948
-16.434494018554688 0.9587690234184264 -1.1426163911819458
-16.346893310546875 0.9194470047950745 -1.0957542657852173
-16.287996292114258 0.8809646368026733 -1.049892783164978
-16.00440788269043 0.8609011173248291 -1.0259820222854614
-15.731863021850586 0.8553394079208375 -1.0193538665771484
-15.434902191162108 0.8461701273918153 -1.008426308631897
-15.251665115356445 0.8400143384933472 -1.001090168952942
-14.214837074279783 0.8087723851203918 -0.9638574123382568
-12.806798934936523 0.9035610556602478 -1.0768221616744995
-10.893942832946777 0.883189558982849 -1.052544355392456
-9.147098541259766 1.0065736770629883 -1.1995877027511597
-7.3142380714416495 1.0593161582946777 -1.2624437808990479
-5.675377368927002 1.0235933065414429 -1.2198710441589355
-4.087442398071289 0.9358516335487366 -1.1153045892715454
-2.7124593257904053 0.8362793922424316 -0.9966389536857605
-1.2400377988815308 0.7381917834281921 -0.8797427415847778