# vtk DataFile Version 4.0
 
ASCII
DATASET UNSTRUCTURED_GRID
POINTS 51 float
0.002990470267832279 0.007076881360262632 -0.002301772590726614
0.002663540421053767 0.01109293196350336 -0.0013067908585071564
0.0024158067535609007 0.015076451003551485 -0.00048396675265394157
0.0021610232070088387 0.018951723352074623 0.00044927292037755246
0.0018239807104691865 0.02276010625064373 0.0013385805068537593
0.0014375883620232344 0.026509156450629234 0.0021557537838816643
0.0011537274112924933 0.03013013862073421 0.0031573183368891478
0.0011058691889047623 0.03366429731249809 0.00418934365734458
0.0012308575678616762 0.03716657683253288 0.005046776030212641
0.0014622097369283438 0.040557246655225754 0.00602717325091362
0.0017137653194367886 0.04386713355779648 0.007015489041805267
0.0019408058142289517 0.047128092497587204 0.007892847992479801
0.0021194086875766516 0.05031465366482735 0.008754290640354156
0.0022329261992126703 0.053411487489938736 0.009657028131186962
0.0022873322013765574 0.05642457306385041 0.010578756220638752
0.002315010642632842 0.059367481619119644 0.011468835175037384
0.0023268242366611958 0.06224886700510979 0.012294935993850231
0.002347409725189209 0.0650707334280014 0.013049604371190071
0.002370904665440321 0.06782598048448563 0.01375932339578867
0.002401149133220315 0.07050607353448868 0.014455975964665413
0.0024429464247077703 0.07310561835765839 0.015159664675593376
0.0024758127983659506 0.07562344521284103 0.015874745324254036
0.0025140612851828337 0.07806386798620224 0.016585133969783783
0.0025619138032197952 0.08043140918016434 0.017273984849452972
0.0026071176398545504 0.08272898197174072 0.017930369824171066
0.0026486441493034363 0.08495878428220749 0.01854611188173294
0.0026914223562926054 0.08712188154459 0.019117232412099838
0.0027327577117830515 0.08921770751476288 0.01964585855603218
0.0027675682213157415 0.09124445170164108 0.020138729363679886
0.0027959367725998163 0.09319958835840225 0.02060525305569172
0.002822769805788994 0.0950804278254509 0.021055519580841064
0.002852949546650052 0.09688468277454376 0.021498030051589012
0.0028871840331703424 0.09861090034246445 0.021938208490610123
0.0029206497129052877 0.10025863349437714 0.02237774431705475
0.0029517675284296274 0.10182869434356691 0.022813575342297554
0.0029838785994797945 0.10332304239273071 0.023238398134708405
0.003018902847543359 0.10474429279565811 0.02364245615899563
0.0030546479392796755 0.10609515756368637 0.024015644565224648
0.0030884870793670416 0.10737738758325577 0.024351399391889572
0.0031200633384287357 0.10859092324972153 0.024649979546666145
0.0031490367837250233 0.10973367840051651 0.02491915039718151
0.003173950593918562 0.11080198734998704 0.025172574445605278
0.003192906267940998 0.11179127544164658 0.02542734146118164
0.003204090287908912 0.11269593238830568 0.02570438385009766
0.0032060428056865926 0.11350915580987932 0.026029117405414585
0.0031979666091501713 0.11422407627105713 0.026427127420902252
0.0031800006981939077 0.11483559757471085 0.0269174724817276
0.003153338097035885 0.11534199118614198 0.027506584301590916
0.0031201306264847517 0.1157459393143654 0.028184473514556885
0.003083207178860903 0.11605472117662431 0.028923973441123962
0.003045693039894104 0.11627960950136185 0.02968298643827438

CELLS 50 150
2 0 1
2 1 2
2 2 3
2 3 4
2 4 5
2 5 6
2 6 7
2 7 8
2 8 9
2 9 10
2 10 11
2 11 12
2 12 13
2 13 14
2 14 15
2 15 16
2 16 17
2 17 18
2 18 19
2 19 20
2 20 21
2 21 22
2 22 23
2 23 24
2 24 25
2 25 26
2 26 27
2 27 28
2 28 29
2 29 30
2 30 31
2 31 32
2 32 33
2 33 34
2 34 35
2 35 36
2 36 37
2 37 38
2 38 39
2 39 40
2 40 41
2 41 42
2 42 43
2 43 44
2 44 45
2 45 46
2 46 47
2 47 48
2 48 49
2 49 50

CELL_TYPES 50
4
4
4
4
4
4
4
4
4
4
4
4
4
4
4
4
4
4
4
4
4
4
4
4
4
4
4
4
4
4
4
4
4
4
4
4
4
4
4
4
4
4
4
4
4
4
4
4
4
4

POINT_DATA 51

SCALARS zone float
LOOKUP_TABLE default
1.0
1.0
1.0
1.0
1.0
1.0
1.0
1.0
1.0
1.0
1.0
1.0
1.0
1.0
1.0
1.0
1.0
1.0
1.0
1.0
1.0
1.0
1.0
1.0
1.0
1.0
1.0
1.0
1.0
1.0
1.0
1.0
1.0
1.0
1.0
1.0
1.0
1.0
1.0
1.0
1.0
1.0
1.0
1.0
1.0
1.0
1.0
1.0
1.0
1.0
1.0

VECTORS normals float
-0.00016346495249308646 0.002008025301620364 0.0004974909243173897
-0.00028733181534335017 0.003999785054475069 0.000908902962692082
-0.0002512586652301252 0.003929395694285631 0.0008780318894423544
-0.0002959130215458572 0.0038418276235461235 0.0009112736443057655
-0.0003617173351813108 0.003778716549277306 0.0008532404317520559
-0.000335126620484516 0.0036850159522145982 0.0009093689150176941
-0.00016585958655923605 0.0035775701981037855 0.0010167949367314577
3.856507100863382e-5 0.0035182193387299776 0.0009447288466617465
0.00017817027401179075 0.003446475137025118 0.0009189147967845201
0.0002414538903394714 0.003350279061123729 0.0009843565057963133
0.00023929805320221928 0.003285422455519438 0.0009328373125754296
0.00020282164041418582 0.003223759355023503 0.0008694006828591228
0.0001460601488361135 0.003141698194667697 0.0008820899529382586
8.396180783165619e-5 0.003054960398003459 0.0009122327901422977
4.104220715817064e-5 0.002977995201945305 0.0009059038711711764
1.9746014004340395e-5 0.0029121460393071175 0.0008580901776440442
1.6199513993342407e-5 0.002851626602932811 0.0007903844816610217
2.2040156181901693e-5 0.0027885576710104942 0.0007321936427615583
2.6869760404224508e-5 0.002717669354751706 0.0007031857967376709
3.6020985135110095e-5 0.0026398163754493 0.0007001703488640487
3.733187259058468e-5 0.0025586863048374653 0.0007093846797943115
3.555733201210387e-5 0.0024791276082396507 0.0007127352291718125
4.305047696107067e-5 0.0024039808195084333 0.000699619937222451
4.652824645745568e-5 0.002332555130124092 0.0006726176361553371
4.336517667979933e-5 0.002263688715174794 0.0006360631668940187
4.2152376408921555e-5 0.002196450950577855 0.0005934315267950296
4.205681398161687e-5 0.0021294611506164074 0.0005498732789419591
3.8072852476034313e-5 0.0020612836815416813 0.000510748359374702
3.158946492476389e-5 0.0019909427501261234 0.0004796971334144473
2.760080860753078e-5 0.0019179896917194128 0.00045839513768441975
2.850641067198012e-5 0.001842545927502215 0.00044638835242949426
3.2207175536314026e-5 0.0017652363749220965 0.00044134451309219003
3.3850083127617836e-5 0.0016869738465175033 0.0004398575110826641
3.2291711249854416e-5 0.0016088953707367182 0.00043768307659775024
3.161442145938054e-5 0.0015322054969146848 0.00043032705434598034
3.356763409101404e-5 0.0014578013215214014 0.0004144401173107326
3.538468081387691e-5 0.0013860579347237945 0.0003886233607772738
3.4792101359926164e-5 0.0013165477430447936 0.0003544720821082592
3.270775778219104e-5 0.0012478826101869345 0.0003171668795403093
3.0274881282821298e-5 0.00117814214900136 0.00028387497877702117
2.6943627744913098e-5 0.0011055306531488895 0.0002612977987155318
2.1934773030807264e-5 0.001028799219056964 0.00025409620138816535
1.506981334387092e-5 0.0009469742653891444 0.0002659043821040541
6.568267963302787e-6 0.0008589395438320935 0.00030088747735135257
-3.061904180867714e-6 0.0007640717085450888 0.0003613722219597548
-1.3021096492593642e-5 0.0006632229196839035 0.0004441780911292881
-2.2314161469694227e-5 0.0005589592619799078 0.0005397284403443336
-2.9934990379842926e-5 0.0004551720921881497 0.0006335005164146423
-3.506556458887644e-5 0.0003563629579730332 0.0007086943369358778
-3.721884422702715e-5 0.0002668335509952158 0.0007492557633668184
-1.8757042198558338e-5 0.00011244438064750284 0.000379506207536906

CELL_DATA 50

VECTORS liftinglineloading               float
0.09150431305170059 -0.033280059695243835 0.09143621474504471
0.1014752835035324 -0.04383586347103119 0.12043804675340654
-0.04593741521239281 -0.018877536058425903 0.051865607500076294
0.19252213835716248 -0.03002781793475151 0.08250075578689575
0.09574922174215317 -0.06384063512086868 0.17540070414543152
-0.531402051448822 -0.128375843167305 0.35270974040031433
-1.7171564102172852 -0.26098331809043884 0.717045783996582
-2.9252655506134033 -0.3744716942310333 1.0288525819778442
-4.120827674865723 -0.4810847938060761 1.3217695951461792
-5.5495429039001465 -0.5903990268707275 1.622107982635498
-6.911599159240723 -0.6809915900230408 1.8710089921951292
-8.306700706481934 -0.769992470741272 2.11553692817688
-9.27779483795166 -0.8279700875282288 2.274829149246216
-9.846231460571289 -0.8464091420173645 2.3254899978637695
-10.258472442626953 -0.8448049426078796 2.321082353591919
-11.09760570526123 -0.8638144731521608 2.3733108043670654
-11.423661231994629 -0.844460666179657 2.320136547088623
-12.056368827819824 -0.8562136888504028 2.3524277210235596
-12.355100631713867 -0.8400668501853943 2.3080646991729736
-12.852137565612793 -0.842914342880249 2.3158881664276123
-13.051407814025879 -0.8320847749710083 2.2861342430114746
-13.44020080566406 -0.8257476687431335 2.268723249435425
-13.301931381225586 -0.7790054082870483 2.1402997970581055
-13.584412574768066 -0.7647161483764648 2.1010403633117676
-13.68509578704834 -0.7343284487724304 2.0175509452819824
-13.93687629699707 -0.7156307697296143 1.966179370880127
-14.35231876373291 -0.7069624662399292 1.9423633813858034
-14.684037208557129 -0.6864451169967651 1.8859924077987669
-14.890153884887694 -0.6732578873634338 1.8497607707977295
-15.126260757446289 -0.6474664807319641 1.7788995504379272
-15.732337951660156 -0.6310569643974304 1.7338148355484009
-16.07012176513672 -0.6032519340515137 1.657420992851257
-16.606901168823242 -0.5731873512268066 1.5748193264007568
-16.72239875793457 -0.5369325876235962 1.4752100706100464
-16.58841896057129 -0.5071818828582764 1.3934707641601562
-16.528247833251953 -0.4860171377658844 1.3353211879730225
-16.489288330078125 -0.4656905233860016 1.279474139213562
-16.208179473876953 -0.45506805181503296 1.2502892017364502
-15.94590950012207 -0.4525013864040375 1.2432373762130737
-15.657505989074705 -0.44790390133857727 1.2306058406829834
-15.42138671875 -0.44503861665725714 1.2227336168289185
-14.394128799438477 -0.42864605784416204 1.177695393562317
-12.971199989318848 -0.4805161654949188 1.3202073574066162
-11.050387382507324 -0.4708587229251861 1.2936737537384033
-9.290807723999023 -0.538482129573822 1.479467511177063
-7.457389831542969 -0.567000687122345 1.5578216314315796
-5.80003023147583 -0.5485683679580688 1.5071791410446167
-4.191679000854492 -0.5021607875823975 1.3796755075454712
-2.7912471294403076 -0.4491254985332489 1.2339621782302856
-1.2808130979537964 -0.39665794372558594 1.089808702468872