# vtk DataFile Version 4.0
 
ASCII
DATASET UNSTRUCTURED_GRID
POINTS 51 float
0.002990470267832279 0.007386603858321905 0.0009047048515640199
0.002663540421053767 0.010605884715914726 0.003503720974549651
0.0024158067535609007 0.013868438079953194 0.005932960659265518
0.0021610232070088387 0.016986222937703133 0.008416524156928062
0.0018239807104691865 0.020061952993273735 0.010832002386450768
0.0014375883620232344 0.023114394396543503 0.013157030567526816
0.0011537274112924933 0.025972839444875717 0.015595048666000366
0.0011058691889047623 0.028739722445607185 0.018023980781435966
0.0012308575678616762 0.03155149891972542 0.02028120681643486
0.0014622097369283438 0.03421015664935112 0.022602707147598267
0.0017137653194367886 0.03679225221276283 0.024897245690226555
0.0019408058142289517 0.03937689587473869 0.02707054279744625
0.0021194086875766516 0.041900839656591415 0.029197972267866135
0.0022329261992126703 0.04432601109147072 0.03132491186261177
0.0022873322013765574 0.04666725546121597 0.033433664590120316
0.002315010642632842 0.04895826801657677 0.03548407554626465
0.0023268242366611958 0.051220569759607315 0.037450503557920456
0.002347409725189209 0.05345911160111427 0.03932703658938408
0.002370904665440321 0.055656272917985916 0.041134681552648544
0.002401149133220315 0.0577908419072628 0.042898718267679214
0.0024429464247077703 0.059849437326192856 0.044635090976953506
0.0024758127983659506 0.06182916089892387 0.046347253024578094
0.0025140612851828337 0.06374071538448334 0.04802245274186134
0.0025619138032197952 0.06559530645608902 0.04964732751250267
0.0026071176398545504 0.06740021705627441 0.05121321231126785
0.0026486441493034363 0.06916087865829468 0.05271361768245697
0.0026914223562926054 0.07087995111942291 0.054145395755767815
0.0027327577117830515 0.07255600392818451 0.05551022663712502
0.0027675682213157415 0.07418455928564072 0.05681345984339714
0.0027959367725998163 0.07575935870409012 0.05806254968047142
0.002822769805788994 0.07727368921041489 0.05926550924777984
0.002852949546650052 0.07872188091278076 0.06042906641960145
0.0028871840331703424 0.08010034263134003 0.06155753880739212
0.0029206497129052877 0.08140793442726135 0.06265225261449814
0.0029517675284296274 0.08264670521020889 0.0637107864022255
0.0029838785994797945 0.08382150530815125 0.06472734361886978
0.003018902847543359 0.08493883907794952 0.06569419056177139
0.0030546479392796755 0.08600541949272156 0.06660331785678864
0.0030884870793670416 0.08702562004327774 0.06744951009750366
0.0031200633384287357 0.08799926936626434 0.06823297590017319
0.0031490367837250233 0.0889211967587471 0.06895987689495087
0.003173950593918562 0.08978231251239777 0.06964103877544403
0.003192906267940998 0.09057123959064484 0.07029002904891968
0.003204090287908912 0.09127406030893326 0.07092344015836716
0.0032060428056865926 0.09187384694814682 0.07156143337488174
0.0031979666091501713 0.09235358238220215 0.07222428917884827
0.0031800006981939077 0.09270057827234268 0.07292713969945908
0.003153338097035885 0.09291056543588638 0.07367506623268127
0.0031201306264847517 0.09299017488956451 0.07446015626192093
0.003083207178860903 0.0929574966430664 0.07526087015867233
0.003045693039894104 0.09284054487943649 0.07604380697011948

CELLS 50 150
2 0 1
2 1 2
2 2 3
2 3 4
2 4 5
2 5 6
2 6 7
2 7 8
2 8 9
2 9 10
2 10 11
2 11 12
2 12 13
2 13 14
2 14 15
2 15 16
2 16 17
2 17 18
2 18 19
2 19 20
2 20 21
2 21 22
2 22 23
2 23 24
2 24 25
2 25 26
2 26 27
2 27 28
2 28 29
2 29 30
2 30 31
2 31 32
2 32 33
2 33 34
2 34 35
2 35 36
2 36 37
2 37 38
2 38 39
2 39 40
2 40 41
2 41 42
2 42 43
2 43 44
2 44 45
2 45 46
2 46 47
2 47 48
2 48 49
2 49 50

CELL_TYPES 50
4
4
4
4
4
4
4
4
4
4
4
4
4
4
4
4
4
4
4
4
4
4
4
4
4
4
4
4
4
4
4
4
4
4
4
4
4
4
4
4
4
4
4
4
4
4
4
4
4
4

POINT_DATA 51

SCALARS zone float
LOOKUP_TABLE default
1.0
1.0
1.0
1.0
1.0
1.0
1.0
1.0
1.0
1.0
1.0
1.0
1.0
1.0
1.0
1.0
1.0
1.0
1.0
1.0
1.0
1.0
1.0
1.0
1.0
1.0
1.0
1.0
1.0
1.0
1.0
1.0
1.0
1.0
1.0
1.0
1.0
1.0
1.0
1.0
1.0
1.0
1.0
1.0
1.0
1.0
1.0
1.0
1.0
1.0
1.0

VECTORS normals float
-0.00016346495249308646 0.0016096401959657667 0.0012995080323889852
-0.00028733181534335017 0.0032409171108156447 0.0025141278747469187
-0.0002512586652301252 0.00319016957655549 0.002456401474773884
-0.0002959130215458572 0.0030967574566602707 0.0024495208635926247
-0.0003617173351813108 0.0030640852637588978 0.0023702532052993774
-0.000335126620484516 0.0029554427601397038 0.0023815231397747993
-0.00016585958655923605 0.002812663558870554 0.0024334758054465055
3.856507100863382e-5 0.002789329970255494 0.0023430788423866034
0.00017817027401179075 0.0027352171018719673 0.0022893629502505064
0.0002414538903394714 0.002620376879349351 0.00230801897123456
0.00023929805320221928 0.0025833698455244303 0.002233917359262705
0.00020282164041418582 0.0025542937219142914 0.0021503642201423645
0.0001460601488361135 0.0024745583068579435 0.0021271840669214725
8.396180783165619e-5 0.0023832081351429224 0.002117845695465803
4.104220715817064e-5 0.0023161289282143116 0.002079583005979657
1.9746014004340395e-5 0.002276655985042453 0.0020084199495613575
1.6199513993342407e-5 0.002250420395284891 0.0019214811036363242
2.2040156181901693e-5 0.002217853209003806 0.0018420882988721132
2.6869760404224508e-5 0.0021658658515661955 0.0017858394421637058
3.6020985135110095e-5 0.0020965812727808952 0.0017502044793218376
3.733187259058468e-5 0.0020191585645079613 0.0017242684261873364
3.555733201210387e-5 0.0019456377485767007 0.0016936820466071367
4.305047696107067e-5 0.001883074291981757 0.001650037243962288
4.652824645745568e-5 0.001829752349294722 0.001595378969796002
4.336517667979933e-5 0.00178278679959476 0.0015331452013924718
4.2152376408921555e-5 0.0017398655181750655 0.0014660918386653066
4.205681398161687e-5 0.0016975607722997665 0.0013983036624267697
3.8072852476034313e-5 0.0016523059457540512 0.0013340313453227282
3.158946492476389e-5 0.0016016782028600574 0.0012761621037498116
2.760080860753078e-5 0.001544562866911292 0.001226024585776031
2.850641067198012e-5 0.0014812618028372526 0.0011832588352262974
3.2207175536314026e-5 0.0014133271761238575 0.0011460151290521026
3.3850083127617836e-5 0.001343025709502399 0.0011115922825410962
3.2291711249854416e-5 0.0012731816386803985 0.0010766241466626525
3.161442145938054e-5 0.00120678567327559 0.0010375467827543616
3.356763409101404e-5 0.001146066701039672 0.0009917037095874548
3.538468081387691e-5 0.0010919556953012943 0.000937985780183226
3.4792101359926164e-5 0.0010433910647407174 0.0008776579052209854
3.270775778219104e-5 0.0009969251696020365 0.0008148287888616325
3.0274881282821298e-5 0.0009477885905653239 0.0007551824674010277
2.6943627744913098e-5 0.0008915218058973551 0.0007040336495265365
2.1934773030807264e-5 0.0008250231039710342 0.0006650787545368075
1.506981334387092e-5 0.0007458740728907287 0.0006411998183466494
6.568267963302787e-6 0.0006513030384667218 0.0006357001839205623
-3.061904180867714e-6 0.0005397616187110543 0.0006504251505248249
-1.3021096492593642e-5 0.00041336633148603136 0.0006828521727584302
-2.2314161469694227e-5 0.000278490042546764 0.0007253864896483719
-2.9934990379842926e-5 0.00014479712990578264 0.0007665104931220412
-3.506556458887644e-5 2.346735891478602e-5 0.0007929006824269891
-3.721884422702715e-5 -7.481583452317864e-5 0.0007918250630609691
-1.8757042198558338e-5 -5.8477031416259706e-5 0.0003914704720955342

CELL_DATA 50

VECTORS liftinglineloading               float
0.05456338450312614 -0.049987368285655975 0.049987368285655975
-0.010157058946788311 -0.007486391812562943 0.007486391812562943
0.059205632656812675 -0.048549167811870575 0.048549167811870575
0.11887626349925993 -0.09626154601573944 0.09626154601573944
-0.17887566983699799 -0.17968855798244476 0.17968855798244476
-0.8727193474769593 -0.3293052017688751 0.3293052017688751
-2.0790388584136963 -0.5932255983352661 0.5932255983352661
-3.152435302734375 -0.8028031587600708 0.8028031587600708
-4.182461738586426 -0.9938744902610779 0.9938744902610779
-5.428479194641113 -1.1965333223342896 1.1965333223342896
-6.616275310516357 -1.3664720058441162 1.3664720058441162
-7.886930465698241 -1.5398138761520386 1.5398138761520386
-8.794082641601562 -1.657542109489441 1.657542109489441
-9.424304962158203 -1.7046707868576052 1.7046707868576052
-9.841703414916992 -1.7033742666244507 1.7033742666244507
-10.720157623291016 -1.7501312494277952 1.7501312494277952
-11.105528831481934 -1.7187322378158572 1.7187322378158572
-11.78166675567627 -1.748069763183594 1.748069763183594
-12.122337341308594 -1.7205982208251955 1.7205982208251955
-12.63938045501709 -1.7294543981552122 1.7294543981552122
-12.863664627075195 -1.709450364112854 1.709450364112854
-13.280813217163084 -1.6982702016830444 1.6982702016830444
-13.184109687805178 -1.6041529178619385 1.6041529178619385
-13.371592521667479 -1.5719234943389893 1.5719234943389893
-13.44404411315918 -1.5105187892913818 1.5105187892913818
-13.695897102355955 -1.4735714197158813 1.4735714197158813
-14.101035118103027 -1.4562747478485107 1.4562747478485107
-14.419612884521484 -1.4146671295166016 1.4146671295166016
-14.585363388061522 -1.388323187828064 1.388323187828064
-14.845741271972658 -1.33700692653656 1.33700692653656
-15.51500129699707 -1.305995225906372 1.305995225906372
-15.947844505310059 -1.2488489151000977 1.2488489151000977
-16.532808303833008 -1.1858407258987427 1.1858407258987427
-16.697277069091797 -1.1104239225387573 1.1104239225387573
-16.56253433227539 -1.0489031076431274 1.0489031076431274
-16.525720596313477 -1.0045790672302246 1.0045790672302246
-16.5060977935791 -0.962137997150421 0.962137997150421
-16.28484535217285 -0.9389204978942871 0.9389204978942871
-16.04140281677246 -0.9336010813713074 0.9336010813713074
-15.769145011901854 -0.9241142868995667 0.9241142868995667
-15.536427497863768 -0.9181945323944091 0.9181945323944091
-14.510204315185547 -0.8846059441566468 0.8846059441566468
-12.98011589050293 -0.9934357404708862 0.9934357404708862
-11.054534912109375 -0.9734905362129211 0.9734905362129211
-9.289917945861816 -1.1131696701049805 1.1131696701049805
-7.451395988464356 -1.171826720237732 1.171826720237732
-5.789798736572266 -1.1333255767822266 1.1333255767822266
-4.1787109375 -1.0369664430618286 1.0369664430618286
-2.778029680252075 -0.9269698262214661 0.9269698262214661
-1.2721936702728271 -0.8182610869407654 0.8182610869407654