# vtk DataFile Version 4.0
 
ASCII
DATASET UNSTRUCTURED_GRID
POINTS 51 float
0.002990470267832279 0.004476799163967371 -0.005944634322077036
0.002663540421053767 0.008337253704667091 -0.007433104794472455
0.0024158067535609007 0.012072313576936722 -0.009043939411640167
0.0021610232070088387 0.015782035887241364 -0.010502239689230919
0.0018239807104691865 0.019411766901612282 -0.011958159506320953
0.0014375883620232344 0.0229515191167593 -0.01343913748860359
0.0011537274112924933 0.026492128148674965 -0.014695613645017147
0.0011058691889047623 0.029979087412357327 -0.015877338126301765
0.0012308575678616762 0.033339790999889374 -0.01718379557132721
0.0014622097369283438 0.036679595708847046 -0.018325509503483772
0.0017137653194367886 0.03995777294039726 -0.019414402544498444
0.0019408058142289517 0.043132226914167404 -0.020566120743751526
0.0021194086875766516 0.04623660445213318 -0.021688204258680344
0.0022329261992126703 0.04929117485880852 -0.022724997252225876
0.0022873322013765574 0.052288029342889786 -0.023698197677731514
0.002315010642632842 0.05520924553275108 -0.02465706691145897
0.0023268242366611958 0.05804337188601494 -0.02563306130468845
0.002347409725189209 0.06078777089715004 -0.026633428409695625
0.002370904665440321 0.06345181912183762 -0.02763240784406662
0.002401149133220315 0.06604679673910141 -0.028598979115486145
0.0024429464247077703 0.06857983767986298 -0.02951358817517757
0.0024758127983659506 0.07105247676372528 -0.03037199564278126
0.0025140612851828337 0.07345902174711227 -0.031189849600195885
0.0025619138032197952 0.07579350471496582 -0.03198353946208954
0.0026071176398545504 0.07805205136537552 -0.03276369348168373
0.0026486441493034363 0.08023177087306976 -0.033538270741701126
0.0026914223562926054 0.08233126252889633 -0.03431113809347153
0.0027327577117830515 0.08435127139091492 -0.03508022800087929
0.0027675682213157415 0.08629418164491653 -0.035838983952999115
0.0027959367725998163 0.08816332370042801 -0.036578256636857986
0.002822769805788994 0.08996228128671646 -0.03728822246193886
0.002852949546650052 0.09169404953718185 -0.03796061873435974
0.0028871840331703424 0.09336055815219879 -0.03859015926718712
0.0029206497129052877 0.09496241062879562 -0.039175212383270264
0.0029517675284296274 0.0964985117316246 -0.03971875086426735
0.0029838785994797945 0.0979662761092186 -0.04022788256406784
0.003018902847543359 0.09936226159334183 -0.04071209207177162
0.0030546479392796755 0.10068287700414658 -0.04118121787905693
0.0030884870793670416 0.1019257977604866 -0.04164164140820503
0.0031200633384287357 0.10309112071990968 -0.04209311306476593
0.0031490367837250233 0.10418160259723663 -0.04252807796001434
0.003173950593918562 0.1052020713686943 -0.04293324053287506
0.003192906267940998 0.10615857690572739 -0.043291982263326645
0.003204090287908912 0.1070585325360298 -0.043583933264017105
0.0032060428056865926 0.10791094601154327 -0.04378436878323555
0.0031979666091501713 0.10872486233711243 -0.043868403881788254
0.0031800006981939077 0.10950704663991928 -0.043817490339279175
0.003153338097035885 0.1102597564458847 -0.043625373393297195
0.0031201306264847517 0.11097947508096695 -0.0433017760515213
0.003083207178860903 0.11165656894445421 -0.04287312179803848
0.003045693039894104 0.11227614432573317 -0.04238036647439003

CELLS 50 150
2 0 1
2 1 2
2 2 3
2 3 4
2 4 5
2 5 6
2 6 7
2 7 8
2 8 9
2 9 10
2 10 11
2 11 12
2 12 13
2 13 14
2 14 15
2 15 16
2 16 17
2 17 18
2 18 19
2 19 20
2 20 21
2 21 22
2 22 23
2 23 24
2 24 25
2 25 26
2 26 27
2 27 28
2 28 29
2 29 30
2 30 31
2 31 32
2 32 33
2 33 34
2 34 35
2 35 36
2 36 37
2 37 38
2 38 39
2 39 40
2 40 41
2 41 42
2 42 43
2 43 44
2 44 45
2 45 46
2 46 47
2 47 48
2 48 49
2 49 50

CELL_TYPES 50
4
4
4
4
4
4
4
4
4
4
4
4
4
4
4
4
4
4
4
4
4
4
4
4
4
4
4
4
4
4
4
4
4
4
4
4
4
4
4
4
4
4
4
4
4
4
4
4
4
4

POINT_DATA 51

SCALARS zone float
LOOKUP_TABLE default
1.0
1.0
1.0
1.0
1.0
1.0
1.0
1.0
1.0
1.0
1.0
1.0
1.0
1.0
1.0
1.0
1.0
1.0
1.0
1.0
1.0
1.0
1.0
1.0
1.0
1.0
1.0
1.0
1.0
1.0
1.0
1.0
1.0
1.0
1.0
1.0
1.0
1.0
1.0
1.0
1.0
1.0
1.0
1.0
1.0
1.0
1.0
1.0
1.0
1.0
1.0

VECTORS normals float
-0.00016346495249308646 0.0019302271539345384 -0.000744235294405371
-0.00028733181534335017 0.0037977572064846754 -0.0015496526611968875
-0.0002512586652301252 0.0037223908584564924 -0.0015345672145485878
-0.0002959130215458572 0.0036697259638458486 -0.001457110163755715
-0.0003617173351813108 0.0035847420804202552 -0.0014684491325169802
-0.000335126620484516 0.003540180856361985 -0.001368726952932775
-0.00016585958655923605 0.0035137836821377277 -0.0012191003188490868
3.856507100863382e-5 0.0034238307271152735 -0.001244091079570353
0.00017817027401179075 0.003350255079567432 -0.001224086037836969
0.0002414538903394714 0.0033089916687458754 -0.001115303486585617
0.00023929805320221928 0.003226314205676317 -0.0011203053873032331
0.00020282164041418582 0.0031394166871905327 -0.0011369010899215937
0.0001460601488361135 0.0030794746708124876 -0.001079438254237175
8.396180783165619e-5 0.0030257124453783035 -0.0010049960110336542
4.104220715817064e-5 0.002959036035463214 -0.0009660349460318685
1.9746014004340395e-5 0.0028776705730706453 -0.0009674319298937917
1.6199513993342407e-5 0.0027892617508769035 -0.000988180749118328
2.2040156181901693e-5 0.0027042217552661896 -0.0009996731532737613
2.6869760404224508e-5 0.0026295152492821217 -0.0009827750036492944
3.6020985135110095e-5 0.0025640123058110476 -0.0009405904565937818
3.733187259058468e-5 0.002502839546650648 -0.0008865082636475563
3.555733201210387e-5 0.002439590636640787 -0.0008381306543014944
4.305047696107067e-5 0.0023705114144831896 -0.0008057716186158359
4.652824645745568e-5 0.0022965148091316223 -0.0007869224646128714
4.336517667979933e-5 0.002219136105850339 -0.0007773661054670811
4.2152376408921555e-5 0.0021396055817604065 -0.0007737217820249498
4.205681398161687e-5 0.0020597469992935658 -0.0007709789788350463
3.8072852476034313e-5 0.0019814579281955957 -0.0007639232208020985
3.158946492476389e-5 0.0019060279009863734 -0.0007490130374208093
2.760080860753078e-5 0.0018340498208999634 -0.0007246183813549578
2.850641067198012e-5 0.0017653630347922442 -0.0006911809905432165
3.2207175536314026e-5 0.0016991418087854981 -0.0006509697414003313
3.3850083127617836e-5 0.0016341799637302758 -0.0006072982214391232
3.2291711249854416e-5 0.001568974694237113 -0.0005642955075018108
3.161442145938054e-5 0.0015019347192719579 -0.0005263336352072656
3.356763409101404e-5 0.0014318739995360374 -0.0004966710112057626
3.538468081387691e-5 0.0013582974206656218 -0.00047666853060945874
3.4792101359926164e-5 0.0012817695969715714 -0.000464774202555418
3.270775778219104e-5 0.0012041250010952353 -0.00045594814582727844
3.0274881282821298e-5 0.0011279014870524406 -0.00044321778113953764
2.6943627744913098e-5 0.0010554719483479857 -0.00042006367584690457
2.1934773030807264e-5 0.0009884865721687675 -0.00038195159868337214
1.506981334387092e-5 0.0009282323881052433 -0.00032534601632505655
6.568267963302787e-6 0.0008761840872466564 -0.0002461948897689581
-3.061904180867714e-6 0.0008331654826179148 -0.00014223471225704998
-1.3021096492593642e-5 0.0007980504888109864 -1.6559652067371644e-5
-2.2314161469694227e-5 0.0007674481603316963 0.00012151380360592158
-2.9934990379842926e-5 0.0007362161413766444 0.0002578572602942586
-3.506556458887644e-5 0.0006984058418311179 0.00037612701999023557
-3.721884422702715e-5 0.0006483327015303075 0.00046070493408478796
-1.8757042198558338e-5 0.00030978486756794155 0.0002463778364472091

CELL_DATA 50

VECTORS liftinglineloading               float
0.05322876200079917 0.018062878400087357 0.06741157919168472
-0.016647396609187126 0.001822663354687393 0.0068022720515728005
0.06477922201156616 0.019062966108322144 0.07114396244287491
0.0824761912226677 0.038018930703401566 0.1418885737657547
-0.22853995859622958 0.06909183412790298 0.2578542232513428
-0.9639809131622314 0.12710396945476532 0.474358469247818
-2.2200875282287598 0.22503149509429934 0.8398289680480957
-3.3013868331909175 0.3018295466899872 1.1264432668685913
-4.280324459075928 0.3683646321296692 1.3747555017471313
-5.546626567840576 0.4431793689727783 1.6539678573608398
-6.730753421783447 0.504589855670929 1.8831551074981692
-7.982478141784669 0.5670412182807922 2.1162266731262207
-8.860692977905273 0.6087122559547424 2.271745204925537
-9.395609855651855 0.6226089596748352 2.323608160018921
-9.779868125915527 0.6210005879402161 2.31760573387146
-10.631123542785645 0.6374332308769226 2.3789331912994385
-10.962133407592773 0.6246487498283386 2.331220865249634
-11.594110488891602 0.6345788240432739 2.3682804107666016
-11.906561851501465 0.6248590350151062 2.332005500793457
-12.400206565856934 0.6282193660736084 2.3445465564727783
-12.60193157196045 0.6208993792533875 2.317228078842163
-12.99101734161377 0.6165657639503479 2.3010547161102295
-12.886992454528809 0.5825195908546448 2.173992872238159
-13.045276641845703 0.5705590844154358 2.1293556690216064
-13.139542579650877 0.5491799116134644 2.049567222595215
-13.383532524108887 0.5362184047698975 2.001194477081299
-13.737253189086914 0.5297695398330688 1.977126955986023
-14.050007820129393 0.514881432056427 1.921563744544983
-14.26067066192627 0.5058304667472839 1.887784957885742
-14.535029411315918 0.4877321124076844 1.8202409744262695
-15.263144493103027 0.4774605631828308 1.7819070816040037
-15.735786437988283 0.45704108476638794 1.7057005167007446
-16.34990119934082 0.4337040185928344 1.6186054944992065
-16.57731819152832 0.4061169922351837 1.5156491994857788
-16.502960205078125 0.38313937187194824 1.4298956394195557
-16.52125358581543 0.3664410412311554 1.3675765991210938
-16.552581787109375 0.3505726456642151 1.3083549737930298
-16.346410751342773 0.3419712781906128 1.2762541770935059
-16.13486099243164 0.33998820185661316 1.2688533067703247
-15.89150333404541 0.3365175426006317 1.255900502204895
-15.651995658874512 0.3344222903251648 1.2480809688568115
-14.63441848754883 0.3223344683647156 1.2029685974121094
-13.191974639892576 0.3630569875240326 1.3549470901489258
-11.264579772949219 0.35698771476745605 1.3322962522506714
-9.493758201599121 0.41001853346824646 1.530210018157959
-7.661073684692384 0.43194913864135737 1.6120561361312866
-5.9814910888671875 0.41855400800704956 1.56206476688385
-4.34720516204834 0.38372471928596497 1.4320801496505737
-2.906956672668457 0.3435623049736023 1.2821919918060303
-1.3459810018539429 0.30364930629730225 1.1332346200942993