# vtk DataFile Version 4.0
 
ASCII
DATASET UNSTRUCTURED_GRID
POINTS 51 float
0.002990470267832279 0.006631710100919007 0.003376511856913566
0.002663540421053767 0.008767927996814251 0.006919846870005131
0.0024158067535609007 0.011002876795828342 0.010318445041775703
0.0021610232070088387 0.013083208352327347 0.013718576170504093
0.0018239807104691865 0.015147306025028227 0.017040345817804337
0.0014375883620232344 0.017220456153154373 0.020269151777029037
0.0011537274112924933 0.01907266490161419 0.023537786677479744
0.0011058691889047623 0.020841939374804497 0.026766566559672352
0.0012308575678616762 0.02271212823688984 0.029849348589777946
0.0014622097369283438 0.024416450411081314 0.03294016048312187
0.0017137653194367886 0.026058048009872437 0.03597944974899292
0.0019408058142289517 0.027743507176637646 0.03890568017959595
0.0021194086875766516 0.029387615621089935 0.04176805168390274
0.0022329261992126703 0.03093907609581947 0.04459617659449577
0.0022873322013765574 0.032417889684438705 0.04737851023674011
0.002315010642632842 0.03386945649981499 0.05008883774280548
0.0023268242366611958 0.03532276302576065 0.05271042883396149
0.002347409725189209 0.036784492433071136 0.05523942038416863
0.002370904665440321 0.03823089972138405 0.057689521461725235
0.002401149133220315 0.03963340446352959 0.0600772388279438
0.0024429464247077703 0.040973976254463196 0.06241297721862794
0.0024758127983659506 0.04224871098995209 0.06469899415969849
0.0025140612851828337 0.04347202926874161 0.06692695617675781
0.0025619138032197952 0.04465904086828232 0.06908814609050751
0.0026071176398545504 0.04581953585147858 0.0711769089102745
0.0026486441493034363 0.046960849314928055 0.07318901270627975
0.0026914223562926054 0.04808655008673668 0.0751224011182785
0.0027327577117830515 0.04919472709298134 0.0769781619310379
0.0027675682213157415 0.05027933791279793 0.0787598043680191
0.0027959367725998163 0.05133194848895073 0.0804721787571907
0.002822769805788994 0.05234351381659508 0.08212051540613174
0.002852949546650052 0.05330641567707061 0.083709217607975
0.0028871840331703424 0.05421578139066696 0.08524109423160553
0.0029206497129052877 0.05507010221481324 0.08671700954437256
0.0029517675284296274 0.055872123688459396 0.08813539147377014
0.0029838785994797945 0.05662839487195015 0.08949245512485504
0.003018902847543359 0.05734765902161599 0.09078314155340195
0.0030546479392796755 0.05803897976875305 0.09200222790241241
0.0030884870793670416 0.05870823934674262 0.09314632415771484
0.0031200633384287357 0.05935521051287651 0.09421554207801819
0.0031490367837250233 0.05997292697429656 0.09521392732858658
0.003173950593918562 0.060549136251211166 0.0961485356092453
0.003192906267940998 0.06106851994991302 0.0970282107591629
0.003204090287908912 0.06151231378316879 0.09786380082368851
0.0032060428056865926 0.06185772642493248 0.09866845607757568
0.0031979666091501713 0.06208181753754616 0.09945542365312576
0.0031800006981939077 0.06216750293970108 0.10023456066846848
0.003153338097035885 0.06210901588201523 0.10100919753313065
0.0031201306264847517 0.061915308237075806 0.1017741709947586
0.003083207178860903 0.06161074340343475 0.10251541435718538
0.003045693039894104 0.06123305857181549 0.10321114212274551

CELLS 50 150
2 0 1
2 1 2
2 2 3
2 3 4
2 4 5
2 5 6
2 6 7
2 7 8
2 8 9
2 9 10
2 10 11
2 11 12
2 12 13
2 13 14
2 14 15
2 15 16
2 16 17
2 17 18
2 18 19
2 19 20
2 20 21
2 21 22
2 22 23
2 23 24
2 24 25
2 25 26
2 26 27
2 27 28
2 28 29
2 29 30
2 30 31
2 31 32
2 32 33
2 33 34
2 34 35
2 35 36
2 36 37
2 37 38
2 38 39
2 39 40
2 40 41
2 41 42
2 42 43
2 43 44
2 44 45
2 45 46
2 46 47
2 47 48
2 48 49
2 49 50

CELL_TYPES 50
4
4
4
4
4
4
4
4
4
4
4
4
4
4
4
4
4
4
4
4
4
4
4
4
4
4
4
4
4
4
4
4
4
4
4
4
4
4
4
4
4
4
4
4
4
4
4
4
4
4

POINT_DATA 51

SCALARS zone float
LOOKUP_TABLE default
1.0
1.0
1.0
1.0
1.0
1.0
1.0
1.0
1.0
1.0
1.0
1.0
1.0
1.0
1.0
1.0
1.0
1.0
1.0
1.0
1.0
1.0
1.0
1.0
1.0
1.0
1.0
1.0
1.0
1.0
1.0
1.0
1.0
1.0
1.0
1.0
1.0
1.0
1.0
1.0
1.0
1.0
1.0
1.0
1.0
1.0
1.0
1.0
1.0
1.0
1.0

VECTORS normals float
-0.00016346495249308646 0.0010681090643629432 0.001771667506545782
-0.00028733181534335017 0.0021855835802853107 0.0034709663596004248
-0.0002512586652301252 0.002157640177756548 0.003399364650249481
-0.0002959130215458572 0.002072214614599943 0.0033609501551836733
-0.0003617173351813108 0.002068623900413513 0.0032752882689237595
-0.000335126620484516 0.0019626787398010492 0.003248720662668347
-0.00016585958655923605 0.0018107416108250616 0.003248706692829728
3.856507100863382e-5 0.0018197325989603998 0.0031557809561491013
0.00017817027401179075 0.0017872550524771214 0.0030867967288941145
0.0002414538903394714 0.0016729598864912985 0.0030650501139461994
0.00023929805320221928 0.0016635289648547769 0.0029827600810676813
0.00020282164041418582 0.0016647829907014968 0.002894301200285554
0.0001460601488361135 0.00159778434317559 0.0028452479746192694
8.396180783165619e-5 0.0015151372645050287 0.002805229276418686
4.104220715817064e-5 0.0014651899691671133 0.0027463315054774284
1.9746014004340395e-5 0.0014524367870762944 0.002665959531441331
1.6199513993342407e-5 0.0014575183158740401 0.002575290622189641
2.2040156181901693e-5 0.0014540690463036299 0.0024895472452044487
2.6869760404224508e-5 0.0014244549674913287 0.0024189099203795195
3.6020985135110095e-5 0.0013715368695557117 0.0023617271799594164
3.733187259058468e-5 0.0013076537288725376 0.002310875104740262
3.555733201210387e-5 0.0012490280205383897 0.002256987849250436
4.305047696107067e-5 0.0012051650555804372 0.0021945771295577288
4.652824645745568e-5 0.001173752942122519 0.002124977996572852
4.336517667979933e-5 0.001150905154645443 0.0020504342392086983
4.2152376408921555e-5 0.0011335058370605111 0.001972744707018137
4.205681398161687e-5 0.001116937375627458 0.0018945756601169705
3.8072852476034313e-5 0.0010963940294459462 0.0018187012756243348
3.158946492476389e-5 0.0010686120949685574 0.0017470063176006079
2.760080860753078e-5 0.001032089232467115 0.0016803578473627565
2.850641067198012e-5 0.0009872324299067259 0.0016185209387913348
3.2207175536314026e-5 0.0009361329139210283 0.0015602883649989963
3.3850083127617836e-5 0.0008818443748168646 0.0015038968995213509
3.2291711249854416e-5 0.0008281721966341138 0.0014471495524048805
3.161442145938054e-5 0.0007791456882841885 0.0013877199962735176
3.356763409101404e-5 0.0007377677829936147 0.0013238745741546154
3.538468081387691e-5 0.0007052927394397557 0.0012548891827464104
3.4792101359926164e-5 0.0006802902207709849 0.0011815894395112991
3.270775778219104e-5 0.0006581153720617294 0.001106657087802887
3.0274881282821298e-5 0.0006323423585854471 0.0010338021675124764
2.6943627744913098e-5 0.000596962752752006 0.0009664936223998666
2.1934773030807264e-5 0.0005477977683767676 0.0009071441018022598
1.506981334387092e-5 0.0004815891443286091 0.0008576347026973963
6.568267963302787e-6 0.0003946024226024747 0.0008201215532608329
-3.061904180867714e-6 0.0002847515279427171 0.0007958090282045305
-1.3021096492593642e-5 0.0001548880827613175 0.0007830507820472121
-2.2314161469694227e-5 1.3598239092971198e-5 0.0007768895593471825
-2.9934990379842926e-5 -0.0001260972348973155 0.0007698077824898064
-3.506556458887644e-5 -0.0002491359191481024 0.0007531092269346118
-3.721884422702715e-5 -0.0003411239886190742 0.0007184836431406438
-1.8757042198558338e-5 -0.00018884122255258262 0.000347861583577469

CELL_DATA 50

VECTORS liftinglineloading               float
0.056037105619907386 -0.06499994546175003 0.030309973284602162
-0.005601291079074144 -0.012804812751710417 0.005970982369035482
0.05524558573961258 -0.06022796779870986 0.02808476239442825
0.13270582258701324 -0.11915852874517441 0.05556453391909599
-0.16234669089317322 -0.22642633318901062 0.10558433830738066
-0.8451545834541321 -0.415060669183731 0.19354596734046936
-2.0396077632904053 -0.7520829439163208 0.35070204734802246
-3.096869945526123 -1.0179609060287476 0.4746829569339752
-4.091012954711914 -1.25862717628479 0.5869075059890747
-5.452061653137207 -1.538733720779419 0.7175232768058777
-6.684488296508789 -1.7628244161605835 0.8220185041427612
-7.989380836486817 -1.989558219909668 0.9277462363243104
-8.917136192321777 -2.142432689666748 0.999032735824585
-9.492776870727539 -2.196152448654175 1.0240826606750488
-9.91491985321045 -2.195024251937866 1.0235565900802612
-10.795026779174805 -2.254659652709961 1.0513651371002197
-11.154315948486328 -2.2109522819519043 1.0309839248657227
-11.818188667297363 -2.247521162033081 1.0480363368988037
-12.163039207458496 -2.212540864944458 1.0317248106002808
-12.744560241699219 -2.228274345397949 1.039061427116394
-12.99012279510498 -2.203216075897217 1.0273765325546265
-13.424535751342773 -2.18927001953125 1.0208734273910522
-13.329250335693361 -2.0675809383392334 0.964128851890564
-13.518539428710938 -2.0256919860839844 0.9445956945419313
-13.628047943115233 -1.946311593055725 0.9075800180435181
-13.889296531677246 -1.8975238800048828 0.8848299384117126
-14.27823829650879 -1.873840570449829 0.873786211013794
-14.571340560913088 -1.8190211057662964 0.8482234477996825
-14.700675964355469 -1.7833211421966553 0.8315762877464294
-14.954395294189453 -1.7164665460586546 0.800401508808136
-15.591918945312502 -1.675382375717163 0.7812436819076538
-15.97077751159668 -1.6023597717285156 0.7471926212310791
-16.516233444213867 -1.5220967531204224 0.7097653746604919
-16.645919799804688 -1.4266589879989624 0.6652620434761047
-16.483469009399414 -1.348638653755188 0.628880500793457
-16.434263229370117 -1.2920994758605957 0.6025158762931824
-16.389406204223633 -1.2378700971603394 0.577228307723999
-16.10835838317871 -1.2095633745193481 0.5640286803245544
-15.840101242065431 -1.2022358179092407 0.5606117844581604
-15.544442176818848 -1.1897050142288208 0.5547685623168945
-15.310115814208984 -1.1819216012954712 0.5511391162872314
-14.282841682434082 -1.138010859489441 0.5306631922721863
-12.894781112670898 -1.2733137607574463 0.5937559604644775
-10.974291801452637 -1.2462326288223267 0.5811277627944946
-9.21769905090332 -1.4227871894836426 0.6634565591812134
-7.360724925994873 -1.4961798191070557 0.6976801156997681
-5.7141218185424805 -1.446239709854126 0.6743926405906677
-4.118990421295166 -1.3227449655532837 0.6168060898780823
-2.736027956008911 -1.1823348999023438 0.5513318181037903
-1.2522128820419312 -1.0438705682754517 0.4867648482322693