# vtk DataFile Version 4.0
 
ASCII
DATASET UNSTRUCTURED_GRID
POINTS 51 float
0.002990470267832279 0.007437346037477256 0.0002574771933723241
0.002663540421053767 0.010870895348489285 0.0025660244282335043
0.0024158067535609007 0.014332756400108337 0.004701670259237289
0.0021610232070088387 0.017655134201049805 0.006904049776494504
0.0018239807104691865 0.02092968299984932 0.009042269550263882
0.0014375883620232344 0.024173147976398468 0.01109241135418415
0.0011537274112924933 0.027233202010393143 0.013272022828459738
0.0011058691889047623 0.030201252549886703 0.015450563281774521
0.0012308575678616762 0.03319906070828438 0.017454136162996292
0.0014622097369283438 0.03604993224143982 0.019535085186362267
0.0017137653194367886 0.03882218524813652 0.021595846861600876
0.0019408058142289517 0.04158640652894974 0.023535607382655144
0.0021194086875766516 0.04428616538643837 0.025434967130422596
0.0022329261992126703 0.046887483447790146 0.02734244242310524
0.0022873322013765574 0.049403607845306396 0.029239119961857796
0.002315010642632842 0.051864609122276306 0.031082054600119594
0.0023268242366611958 0.05428968369960785 0.032843828201293945
0.002347409725189209 0.056683260947465904 0.03451811894774437
0.002370904665440321 0.059029608964920044 0.03612738847732544
0.002401149133220315 0.061309799551963806 0.03769867122173309
0.0024429464247077703 0.06351189315319061 0.03924901783466339
0.0024758127983659506 0.06563331186771393 0.04078212380409241
0.0025140612851828337 0.06768359243869781 0.042284343391656876
0.0025619138032197952 0.06967274844646454 0.04374139755964279
0.0026071176398545504 0.07160726189613342 0.045144014060497284
0.0026486441493034363 0.07349199801683426 0.046485260128974915
0.0026914223562926054 0.07532931119203568 0.04776176065206528
0.0027327577117830515 0.07711794227361679 0.048975322395563126
0.0027675682213157415 0.07885388284921646 0.050131656229496
0.0027959367725998163 0.08053155988454819 0.05123874172568322
0.002822769805788994 0.08214496821165085 0.052305139601230614
0.002852949546650052 0.08368906378746033 0.05333805456757546
0.0028871840331703424 0.08516062796115875 0.054342087358236306
0.0029206497129052877 0.08655865490436554 0.055318672209978104
0.0029517675284296274 0.08788497000932693 0.05626521259546279
0.0029838785994797945 0.08914390206336975 0.05717551335692405
0.003018902847543359 0.0903412476181984 0.058041300624608994
0.0030546479392796755 0.09148300439119339 0.05885400623083114
0.0030884870793670416 0.09257306903600693 0.059608060866594315
0.0031200633384287357 0.09361129999160767 0.06030368804931641
0.0031490367837250233 0.09459307044744492 0.060947466641664505
0.003173950593918562 0.09551028162240982 0.06155099347233773
0.003192906267940998 0.09635277092456818 0.06212875247001648
0.003204090287908912 0.09710811823606491 0.06269849836826324
0.0032060428056865926 0.09776122868061066 0.06328178942203522
0.0031979666091501713 0.09829691052436829 0.06390031427145004
0.0031800006981939077 0.09870384633541107 0.06457024067640305
0.003153338097035885 0.09897821396589279 0.06529702246189117
0.0031201306264847517 0.0991259515285492 0.06607218831777573
0.003083207178860903 0.09916318207979202 0.06687269359827042
0.003045693039894104 0.09911490976810455 0.06766285002231598

CELLS 50 150
2 0 1
2 1 2
2 2 3
2 3 4
2 4 5
2 5 6
2 6 7
2 7 8
2 8 9
2 9 10
2 10 11
2 11 12
2 12 13
2 13 14
2 14 15
2 15 16
2 16 17
2 17 18
2 18 19
2 19 20
2 20 21
2 21 22
2 22 23
2 23 24
2 24 25
2 25 26
2 26 27
2 27 28
2 28 29
2 29 30
2 30 31
2 31 32
2 32 33
2 33 34
2 34 35
2 35 36
2 36 37
2 37 38
2 38 39
2 39 40
2 40 41
2 41 42
2 42 43
2 43 44
2 44 45
2 45 46
2 46 47
2 47 48
2 48 49
2 49 50

CELL_TYPES 50
4
4
4
4
4
4
4
4
4
4
4
4
4
4
4
4
4
4
4
4
4
4
4
4
4
4
4
4
4
4
4
4
4
4
4
4
4
4
4
4
4
4
4
4
4
4
4
4
4
4

POINT_DATA 51

SCALARS zone float
LOOKUP_TABLE default
1.0
1.0
1.0
1.0
1.0
1.0
1.0
1.0
1.0
1.0
1.0
1.0
1.0
1.0
1.0
1.0
1.0
1.0
1.0
1.0
1.0
1.0
1.0
1.0
1.0
1.0
1.0
1.0
1.0
1.0
1.0
1.0
1.0
1.0
1.0
1.0
1.0
1.0
1.0
1.0
1.0
1.0
1.0
1.0
1.0
1.0
1.0
1.0
1.0
1.0
1.0

VECTORS normals float
-0.00016346495249308646 0.001716774655506015 0.0011542736319825053
-0.00028733181534335017 0.0034477051813155413 0.0022220963146537542
-0.0002512586652301252 0.0033921196591109037 0.0021690125577151775
-0.0002959130215458572 0.0032984630670398474 0.002170299645513296
-0.0003617173351813108 0.0032590066548436884 0.0020941810216754675
-0.000335126620484516 0.0031517597381025553 0.0021148768719285727
-0.00016585958655923605 0.003014052053913474 0.0021790757309645414
3.856507100863382e-5 0.002982928417623043 0.002091056667268276
0.00017817027401179075 0.002924339845776558 0.00204226141795516
0.0002414538903394714 0.0028115627355873585 0.002070855349302292
0.00023929805320221928 0.0027682380750775337 0.0020002610981464386
0.00020282164041418582 0.0027319903019815683 0.0019195600179955361
0.0001460601488361135 0.0026505382265895605 0.001903417520225048
8.396180783165619e-5 0.0025587219279259443 0.0019020764157176018
4.104220715817064e-5 0.00248856283724308 0.0018698055064305663
1.9746014004340395e-5 0.0024430379271507263 0.0018023536540567875
1.6199513993342407e-5 0.0024093249812722206 0.0017180321738123896
2.2040156181901693e-5 0.00236996216699481 0.0016417799051851032
2.6869760404224508e-5 0.0023132702335715294 0.0015902761369943619
3.6020985135110095e-5 0.0022411434911191463 0.001560815260745585
3.733187259058468e-5 0.002161754760891199 0.0015417258255183697
3.555733201210387e-5 0.0020858480129390955 0.001517663593403995
4.305047696107067e-5 0.002019718987867236 0.0014796375762671232
4.652824645745568e-5 0.0019618358928710222 0.0014298346359282732
4.336517667979933e-5 0.0019096252508461475 0.0013719310518354177
4.2152376408921555e-5 0.0018610231345519423 0.001308873645029962
4.205681398161687e-5 0.001812971313484013 0.0012450305512174964
3.8072852476034313e-5 0.0017622868763282895 0.0011849469738081098
3.158946492476389e-5 0.0017068082233890893 0.0011317104799672961
2.760080860753078e-5 0.0016455403529107573 0.0010867416858673096
2.850641067198012e-5 0.0015787529991939664 0.0010496556060388684
3.2207175536314026e-5 0.0015078309224918485 0.0010184745769947767
3.3850083127617836e-5 0.0014347967226058245 0.000990309868939221
3.2291711249854416e-5 0.0013621706748381257 0.0009615622111596167
3.161442145938054e-5 0.0012926216004416347 0.0009284202824346721
3.356763409101404e-5 0.0012281383387744427 0.0008880437235347926
3.538468081387691e-5 0.0011695513967424631 0.0008392462041229009
3.4792101359926164e-5 0.001115913619287312 0.0007833806448616087
3.270775778219104e-5 0.0010641486151143909 0.0007248403271660209
3.0274881282821298e-5 0.0010100004728883505 0.0006697035860270262
2.6943627744913098e-5 0.0009494898258708418 0.0006236533517949283
2.1934773030807264e-5 0.000879849074408412 0.000590642390307039
1.506981334387092e-5 0.0007989200530573725 0.0005737526807934046
6.568267963302787e-6 0.0007042295765131712 0.000576516380533576
-3.061904180867714e-6 0.0005943959695287049 0.0006009067292325199
-1.3021096492593642e-5 0.00047130783786997204 0.000644226442091167
-2.2314161469694227e-5 0.00034065189538523555 0.0006983541534282267
-2.9934990379842926e-5 0.00021105192718096075 0.0007509737624786794
-3.506556458887644e-5 9.24839114304632e-5 0.0007878381293267012
-3.721884422702715e-5 -5.519033948075958e-6 0.0007953325402922928
-1.8757042198558338e-5 -2.4135608327924274e-5 0.00039507742621935904

CELL_DATA 50

VECTORS liftinglineloading               float
0.053462620824575424 -0.04490207880735397 0.05351221561431885
-0.011155584827065468 -0.006366484332829713 0.007587280590087175
0.06011031568050385 -0.0445178858935833 0.05305434763431549
0.1145692989230156 -0.0883733257651329 0.10531923174858093
-0.19292044639587402 -0.16545934975147247 0.19718678295612335
-0.8764262199401857 -0.3001320958137512 0.3576835095882416
-2.0955965518951416 -0.5415675044059753 0.6454150080680847
-3.1709799766540527 -0.732230007648468 0.8726377487182616
-4.198257923126221 -0.9051179885864258 1.0786775350570679
-5.434377193450928 -1.0879600048065186 1.296580195426941
-6.604340553283691 -1.2403720617294312 1.4782179594039917
-7.851860523223876 -1.3955950736999512 1.66320538520813
-8.870235443115234 -1.51302170753479 1.8031489849090576
-9.437747955322266 -1.5503724813461304 1.8476619720458984
-9.852683067321777 -1.5489791631698608 1.846001386642456
-10.726882934570312 -1.5910396575927734 1.8961272239685059
-11.080695152282715 -1.5600582361221313 1.8592050075531006
-11.736220359802246 -1.5856736898422241 1.8897323608398438
-12.071329116821289 -1.5610339641571045 1.8603678941726685
-12.603500366210938 -1.5703173875808716 1.871431350708008
-12.82859992980957 -1.5522550344467163 1.849905490875244
-13.2367639541626 -1.5418649911880493 1.837523102760315
-13.1355619430542 -1.4563958644866943 1.7356649637222288
-13.311705589294432 -1.4268990755081177 1.7005120515823366
-13.4131498336792 -1.3721007108688354 1.6352059841156008
-13.654004096984865 -1.3384183645248413 1.5950648784637451
-14.049015045166016 -1.322633147239685 1.576252818107605
-14.352561950683596 -1.2847851514816284 1.5311472415924072
-14.588326454162596 -1.2616828680038452 1.5036150217056274
-14.848732948303223 -1.2150278091430664 1.4480136632919312
-15.516569137573242 -1.1867780685424805 1.4143470525741577
-15.93192195892334 -1.1350806951522827 1.3527365922927856
-16.5198974609375 -1.077763319015503 1.2844282388687134
-16.69489097595215 -1.0090601444244385 1.202551007270813
-16.605445861816406 -0.9523748159408569 1.1349960565567017
-16.582914352416992 -0.9118011593818665 1.0866422653198242
-16.51078224182129 -0.8747216463088989 1.0424526929855347
-16.253604888916016 -0.8542768955230714 1.0180875062942505
-16.01185417175293 -0.849279522895813 1.012131929397583
-15.74024295806885 -0.8405618071556091 1.0017426013946533
-15.509787559509277 -0.8351307511329651 0.9952700734138489
-14.484850883483887 -0.8045089244842529 0.9587764143943787
-13.052549362182615 -0.90324866771698 1.0764498710632324
-11.125123977661133 -0.886032998561859 1.0559329986572266
-9.356535911560059 -1.0145814418792725 1.209131121635437
-7.518746852874755 -1.0683163404464722 1.2731698751449585
-5.849928379058838 -1.0338306427001953 1.2320713996887207
-4.230185031890869 -0.94650936126709 1.1280059814453125
-2.8179354667663574 -0.8465229868888855 1.0088467597961426
-1.293517827987671 -0.7475252747535706 0.8908659219741821