# vtk DataFile Version 4.0
 
ASCII
DATASET UNSTRUCTURED_GRID
POINTS 51 float
0.002990470267832279 -0.0074314852245152005 0.00039170996751636267
0.002663540421053767 -0.011053171940147877 -0.0016087990952655673
0.0024158067535609007 -0.014687993563711641 -0.0034345968160778284
0.0021610232070088387 -0.018189679831266403 -0.005339031573385
0.0018239807104691865 -0.02163812518119812 -0.007183718495070934
0.0014375883620232344 -0.02504792809486389 -0.008943373337388039
0.0011537274112924933 -0.028286304324865345 -0.010847989469766617
0.0011058691889047623 -0.03143293038010597 -0.012759556993842125
0.0012308575678616762 -0.03459395468235016 -0.014494229108095167
0.0014622097369283438 -0.0376153439283371 -0.01631879061460495
0.0017137653194367886 -0.0405566580593586 -0.018130091950297356
0.0019408058142289517 -0.043479423969984055 -0.01982155442237854
0.0021194086875766516 -0.04633444547653198 -0.021478386595845222
0.0022329261992126703 -0.049092113971710205 -0.023151883855462074
0.0022873322013765574 -0.05176397040486336 -0.024822048842906952
0.002315010642632842 -0.054376229643821716 -0.02644347958266735
0.0023268242366611958 -0.056945625692605965 -0.027987189590930935
0.002347409725189209 -0.059476014226675034 -0.02944649569690227
0.002370904665440321 -0.06195369362831115 -0.03084514290094376
0.002401149133220315 -0.06436215341091156 -0.03221171349287033
0.0024429464247077703 -0.06669098883867264 -0.033564236015081406
0.0024758127983659506 -0.06893794983625412 -0.03490661457180977
0.0025140612851828337 -0.07111135870218277 -0.036224424839019775
0.0025619138032197952 -0.07321993261575699 -0.03750256821513176
0.0026071176398545504 -0.07526933401823044 -0.03873124346137047
0.0026486441493034363 -0.07726379483938217 -0.03990311920642853
0.0026914223562926054 -0.07920537143945694 -0.04101463034749031
0.0027327577117830515 -0.0810929611325264 -0.04206768423318863
0.0027675682213157415 -0.08292308449745178 -0.04306831955909729
0.0027959367725998163 -0.08469086140394211 -0.04402497410774231
0.002822769805788994 -0.08639106899499893 -0.04494669660925865
0.002852949546650052 -0.08801931887865067 -0.04584110155701637
0.0028871840331703424 -0.08957278728485107 -0.04671306163072586
0.0029206497129052877 -0.09105061739683151 -0.04756408557295799
0.0029517675284296274 -0.09245437383651733 -0.0483914278447628
0.0029838785994797945 -0.09378785640001297 -0.04918853938579559
0.003018902847543359 -0.09505610167980194 -0.049946676939725876
0.0030546479392796755 -0.09626434743404388 -0.05065678060054779
0.0030884870793670416 -0.097415991127491 -0.05131296068429947
0.0031200633384287357 -0.09851089119911194 -0.05191545188426972
0.0031490367837250233 -0.09954503923654556 -0.05247121676802635
0.003173950593918562 -0.10051135718822479 -0.052992504090070724
0.003192906267940998 -0.10140100121498108 -0.053494635969400406
0.003204090287908912 -0.10220313072204591 -0.05399638041853905
0.0032060428056865926 -0.10290458798408507 -0.05452052876353263
0.0031979666091501713 -0.1034921407699585 -0.05509001016616821
0.0031800006981939077 -0.10395591706037523 -0.05572192370891571
0.003153338097035885 -0.10429258644580841 -0.056422024965286255
0.0031201306264847517 -0.10450731962919235 -0.05718136578798294
0.003083207178860903 -0.10461417585611345 -0.057975586503744125
0.003045693039894104 -0.10463495552539827 -0.0587669387459755

CELLS 50 150
2 0 1
2 1 2
2 2 3
2 3 4
2 4 5
2 5 6
2 6 7
2 7 8
2 8 9
2 9 10
2 10 11
2 11 12
2 12 13
2 13 14
2 14 15
2 15 16
2 16 17
2 17 18
2 18 19
2 19 20
2 20 21
2 21 22
2 22 23
2 23 24
2 24 25
2 25 26
2 26 27
2 27 28
2 28 29
2 29 30
2 30 31
2 31 32
2 32 33
2 33 34
2 34 35
2 35 36
2 36 37
2 37 38
2 38 39
2 39 40
2 40 41
2 41 42
2 42 43
2 43 44
2 44 45
2 45 46
2 46 47
2 47 48
2 48 49
2 49 50

CELL_TYPES 50
4
4
4
4
4
4
4
4
4
4
4
4
4
4
4
4
4
4
4
4
4
4
4
4
4
4
4
4
4
4
4
4
4
4
4
4
4
4
4
4
4
4
4
4
4
4
4
4
4
4

POINT_DATA 51

SCALARS zone float
LOOKUP_TABLE default
1.0
1.0
1.0
1.0
1.0
1.0
1.0
1.0
1.0
1.0
1.0
1.0
1.0
1.0
1.0
1.0
1.0
1.0
1.0
1.0
1.0
1.0
1.0
1.0
1.0
1.0
1.0
1.0
1.0
1.0
1.0
1.0
1.0
1.0
1.0
1.0
1.0
1.0
1.0
1.0
1.0
1.0
1.0
1.0
1.0
1.0
1.0
1.0
1.0
1.0
1.0

VECTORS normals float
-0.00016346495249308646 -0.0018108433578163385 -0.001000254531390965
-0.00028733181534335017 -0.0036282541695982213 -0.0019131533335894346
-0.0002512586652301252 -0.003568253479897976 -0.0018651161808520558
-0.0002959130215458572 -0.003475065575912595 -0.0018745609559118746
-0.0003617173351813108 -0.0034291250631213184 -0.0018021707655861974
-0.000335126620484516 -0.0033240900374948983 -0.0018321352545171974
-0.00016585958655923605 -0.0031925016082823277 -0.0019080918282270432
3.856507100863382e-5 -0.003153824945911765 -0.0018231201684102416
0.00017817027401179075 -0.0030912067741155624 -0.0017796169267967345
0.0002414538903394714 -0.0029813507571816444 -0.001817931421101093
0.00023929805320221928 -0.002932038391008973 -0.0017513815546408296
0.00020282164041418582 -0.002888894872739911 -0.0016741468571126463
0.0001460601488361135 -0.0028063456993550062 -0.001665164832957089
8.396180783165619e-5 -0.0027147619985044003 -0.0016718311235308647
4.104220715817064e-5 -0.0026420573703944683 -0.001645797863602638
1.9746014004340395e-5 -0.0025908269453793764 -0.0015825702575966716
1.6199513993342407e-5 -0.0025498932227492332 -0.0015015080571174622
2.2040156181901693e-5 -0.002504034200683236 -0.0014289766550064087
2.6869760404224508e-5 -0.002443069126456976 -0.0013826099457219243
3.6020985135110095e-5 -0.0023686494678258896 -0.0013595473719760776
3.733187259058468e-5 -0.002287898911163211 -0.0013474497245624661
3.555733201210387e-5 -0.0022101840004324913 -0.0013300947612151504
4.305047696107067e-5 -0.0021409920882433653 -0.0012979770544916391
4.652824645745568e-5 -0.0020789888221770525 -0.0012534083798527718
4.336517667979933e-5 -0.002021930180490017 -0.001200275612063706
4.2152376408921555e-5 -0.001968017313629389 -0.0011416941415518522
4.205681398161687e-5 -0.0019145839614793658 -0.0010822819313034415
3.8072852476034313e-5 -0.0018588558305054903 -0.0010268444893881679
3.158946492476389e-5 -0.0017989483894780278 -0.000978645752184093
2.760080860753078e-5 -0.0017339943442493677 -0.0009391879430040718
2.850641067198012e-5 -0.0016642288537696006 -0.0009080640156753361
3.2207175536314026e-5 -0.0015908590285107491 -0.0008831828599795699
3.3850083127617836e-5 -0.0015156480949372053 -0.0008614906691946088
3.2291711249854416e-5 -0.0014407929265871644 -0.0008391821756958961
3.161442145938054e-5 -0.001368619967252016 -0.0008122279541566968
3.356763409101404e-5 -0.0013008629903197289 -0.000777625129558146
3.538468081387691e-5 -0.0012382459826767445 -0.0007341195014305413
3.4792101359926164e-5 -0.0011799433268606663 -0.0006831413484178483
3.270775778219104e-5 -0.0011232731631025672 -0.0006293354672379792
3.0274881282821298e-5 -0.0010645255679264665 -0.0005791278090327978
2.6943627744913098e-5 -0.001000231713987887 -0.0005385266849771142
2.1934773030807264e-5 -0.0009279788355343044 -0.000511710939463228
1.506981334387092e-5 -0.0008458857773803174 -0.0005019388627260923
6.568267963302787e-6 -0.0007517964695580304 -0.0005129448836669326
-3.061904180867714e-6 -0.0006445065955631435 -0.0005468151066452265
-1.3021096492593642e-5 -0.0005256623844616115 -0.0006006978219375014
-2.2314161469694227e-5 -0.00040022117900662124 -0.0006660069338977337
-2.9934990379842926e-5 -0.000275700498605147 -0.0007297217380255461
-3.506556458887644e-5 -0.00016079659690149128 -0.0007767796632833779
-3.721884422702715e-5 -6.38197670923546e-5 -0.0007927870610728861
-1.8757042198558338e-5 -1.0389500857854728e-5 -0.00039567757630720735

CELL_DATA 50

VECTORS liftinglineloading               float
0.10016338527202606 0.059448897838592536 -0.084901824593544
0.12702254951000214 0.08709938079118729 -0.12439080327749254
-0.06134610250592232 0.030287511646747593 -0.043255049735307693
0.1672443002462387 0.04916616529226303 -0.07021655887365341
0.16744518280029297 0.09566625952720642 -0.13662557303905487
-0.43411749601364136 0.20018817484378815 -0.285898357629776
-1.578796625137329 0.419039636850357 -0.5984506607055664
-2.7703909873962402 0.6084833741188049 -0.8690043091773986
-3.982501745223999 0.7930666208267212 -1.1326165199279785
-5.351870536804199 0.9720402956008911 -1.3882174491882324
-6.713232517242432 1.1276222467422485 -1.610411524772644
-8.085782051086426 1.2761106491088867 -1.8224749565124512
-9.035810470581055 1.3733928203582764 -1.9614082574844358
-9.596650123596191 1.4045467376708984 -2.0059006214141846
-9.98465347290039 1.3996397256851196 -1.9988927841186523
-10.828546524047852 1.433623194694519 -2.0474259853363037
-11.15075969696045 1.4026130437850952 -2.003139019012451
-11.78600788116455 1.4233592748641968 -2.0327675342559814
-12.112234115600586 1.4000941514968872 -1.999541640281677
-12.639350891113281 1.4071159362792969 -2.0095696449279785
-12.898917198181152 1.391347050666809 -1.9870495796203613
-13.3667573928833 1.3833327293395996 -1.9756039381027222
-13.301175117492676 1.307093620300293 -1.8667231798171997
-13.509511947631836 1.2809827327728271 -1.8294329643249512
-13.62953472137451 1.2309170961380005 -1.7579317092895506
-13.892447471618652 1.2000478506088257 -1.71384596824646
-14.310810089111328 1.1856998205184937 -1.693354845046997
-14.639730453491213 1.1514545679092407 -1.6444474458694458
-14.800119400024414 1.129452109336853 -1.6130247116088867
-15.040443420410156 1.0866925716400146 -1.5519578456878662
-15.650779724121094 1.0601357221603394 -1.5140308141708374
-16.00446319580078 1.0139572620391846 -1.448081135749817
-16.52602195739746 0.963556170463562 -1.376100778579712
-16.63080596923828 0.9036619663238525 -1.2905629873275757
-16.447141647338867 0.8547953367233276 -1.2207742929458618
-16.367774963378906 0.8196081519126892 -1.1705217361450195
-16.315237045288086 0.7852702140808105 -1.1214821338653564
-16.138601303100586 0.7656407356262207 -1.093448281288147
-15.849347114562988 0.7613815069198608 -1.0873655080795288
-15.539840698242186 0.753628134727478 -1.0762925148010254
-15.299050331115723 0.7487882375717163 -1.0693804025650024
-14.269269943237305 0.7209734916687012 -1.0296568870544434
-12.859843254089355 0.8062885403633118 -1.1514993906021118
-10.946533203125 0.7887603640556335 -1.1264665126800537
-9.197187423706055 0.9000607728958129 -1.2854199409484863
-7.365654945373536 0.9474999308586121 -1.3531701564788818
-5.7740044593811035 0.9190963506698607 -1.312605619430542
-4.165678024291992 0.8408321142196655 -1.200832724571228
-2.7693068981170654 0.7516689300537109 -1.0734944343566895
-1.2686259746551514 0.6636396050453186 -0.9477755427360535