# vtk DataFile Version 4.0
 
ASCII
DATASET UNSTRUCTURED_GRID
POINTS 51 float
0.002990470267832279 0.00458339462056756 0.0058628409169614315
0.002663540421053767 0.005021987948566675 0.009976997971534729
0.0024158067535609007 0.005611230153590441 0.014001703821122646
0.0021610232070088387 0.006059692706912756 0.01796245574951172
0.0018239807104691865 0.00652656052261591 0.021845325827598572
0.0014375883620232344 0.007040919736027718 0.02564777061343193
0.0011537274112924933 0.007338205352425576 0.029392935335636135
0.0011058691889047623 0.007577172480523586 0.03306693211197853
0.0012308575678616762 0.007969300262629986 0.036651257425546646
0.0014622097369283438 0.008207704871892929 0.0401727594435215
0.0017137653194367886 0.008411040529608727 0.043621063232421875
0.0019408058142289517 0.008701905608177185 0.046985432505607605
0.0021194086875766516 0.008982283063232899 0.050274454057216644
0.0022329261992126703 0.009193167090415955 0.05349327996373176
0.0022873322013765574 0.00935756228864193 0.0566399060189724
0.002315010642632842 0.009527693502604961 0.05970975384116173
0.0023268242366611958 0.009736905805766582 0.06269991397857666
0.002347409725189209 0.00999288447201252 0.06560971587896347
0.002370904665440321 0.0102683175355196 0.06844154000282288
0.002401149133220315 0.010530322790145874 0.07119826972484589
0.0024429464247077703 0.010758168064057827 0.07388171553611755
0.0024758127983659506 0.01094735972583294 0.07649227231740952
0.0025140612851828337 0.011114487424492836 0.07902849465608597
0.0025619138032197952 0.011276924051344395 0.08148884773254395
0.0026071176398545504 0.011445941403508186 0.08387236297130585
0.0026486441493034363 0.011629970744252205 0.08617828786373138
0.0026914223562926054 0.011833115480840206 0.0884062722325325
0.0027327577117830515 0.01205318421125412 0.09055650234222412
0.0027675682213157415 0.012283223681151867 0.09262958914041519
0.0027959367725998163 0.012513534165918827 0.09462638199329376
0.002822769805788994 0.012733705341815948 0.09654778987169266
0.002852949546650052 0.0129349734634161 0.09839458018541336
0.0028871840331703424 0.013111741282045841 0.10016724467277527
0.0029206497129052877 0.013262270018458366 0.10186593234539033
0.0029517675284296274 0.013389715924859047 0.10349037498235703
0.0029838785994797945 0.013501609675586224 0.10503990203142168
0.003018902847543359 0.013608017936348915 0.10651363432407379
0.0030546479392796755 0.013719356618821623 0.10791067034006117
0.0030884870793670416 0.013842400163412094 0.10923041403293611
0.0031200633384287357 0.013976879417896272 0.11047288030385972
0.0031490367837250233 0.014114785939455034 0.11163877695798874
0.003173950593918562 0.01424202788621187 0.11272933334112169
0.003192906267940998 0.014340981841087341 0.11374609917402267
0.003204090287908912 0.014390059746801853 0.11469095200300217
0.0032060428056865926 0.014363047666847706 0.1155661940574646
0.0031979666091501713 0.014233557507395746 0.11637413501739502
0.0031800006981939077 0.013981936499476433 0.11711648106575011
0.003153338097035885 0.013601550832390783 0.11779382824897766
0.0031201306264847517 0.013102700933814049 0.1184052675962448
0.003083207178860903 0.01251340750604868 0.1189483478665352
0.003045693039894104 0.011877086013555527 0.11941926926374435

CELLS 50 150
2 0 1
2 1 2
2 2 3
2 3 4
2 4 5
2 5 6
2 6 7
2 7 8
2 8 9
2 9 10
2 10 11
2 11 12
2 12 13
2 13 14
2 14 15
2 15 16
2 16 17
2 17 18
2 18 19
2 19 20
2 20 21
2 21 22
2 22 23
2 23 24
2 24 25
2 25 26
2 26 27
2 27 28
2 28 29
2 29 30
2 30 31
2 31 32
2 32 33
2 33 34
2 34 35
2 35 36
2 36 37
2 37 38
2 38 39
2 39 40
2 40 41
2 41 42
2 42 43
2 43 44
2 44 45
2 45 46
2 46 47
2 47 48
2 48 49
2 49 50

CELL_TYPES 50
4
4
4
4
4
4
4
4
4
4
4
4
4
4
4
4
4
4
4
4
4
4
4
4
4
4
4
4
4
4
4
4
4
4
4
4
4
4
4
4
4
4
4
4
4
4
4
4
4
4

POINT_DATA 51

SCALARS zone float
LOOKUP_TABLE default
1.0
1.0
1.0
1.0
1.0
1.0
1.0
1.0
1.0
1.0
1.0
1.0
1.0
1.0
1.0
1.0
1.0
1.0
1.0
1.0
1.0
1.0
1.0
1.0
1.0
1.0
1.0
1.0
1.0
1.0
1.0
1.0
1.0
1.0
1.0
1.0
1.0
1.0
1.0
1.0
1.0
1.0
1.0
1.0
1.0
1.0
1.0
1.0
1.0
1.0
1.0

VECTORS normals float
-0.00016346495249308646 0.0002192965621361509 0.0020570785272866488
-0.00028733181534335017 0.0005139175918884575 0.004069431684911251
-0.0002512586652301252 0.0005188523791730404 0.003992728888988495
-0.0002959130215458572 0.0004576653300318867 0.003921811003237963
-0.0003617173351813108 0.0004906134563498199 0.0038426574319601063
-0.000335126620484516 0.0004058224149048328 0.0037738047540187836
-0.00016585958655923605 0.00026812637224793434 0.0037095807492733
3.856507100863382e-5 0.0003155471640639007 0.0036291610449552536
0.00017817027401179075 0.0003152664576191455 0.003552914597094059
0.0002414538903394714 0.00022087039542384446 0.0034849022049456835
0.00023929805320221928 0.00024710033903829753 0.0034063365310430522
0.00020282164041418582 0.0002856212668120861 0.0033266954123973846
0.0001460601488361135 0.0002456306538078934 0.0032539232634007926
8.396180783165619e-5 0.00018763959815260023 0.0031827257480472326
4.104220715817064e-5 0.00016726322064641863 0.003108237637206912
1.9746014004340395e-5 0.000189671540283598 0.0030300060752779245
1.6199513993342407e-5 0.000232595280976966 0.002949979854747653
2.2040156181901693e-5 0.0002657059521880001 0.0028708120808005333
2.6869760404224508e-5 0.0002687191590666771 0.002794277621433139
3.6020985135110095e-5 0.0002449254388920963 0.002720088232308626
3.733187259058468e-5 0.00020851871522609144 0.002647002460435033
3.555733201210387e-5 0.000178159520146437 0.002573387697339058
4.305047696107067e-5 0.0001647821336518973 0.0024982872419059277
4.652824645745568e-5 0.00016572697495575994 0.0024219334591180086
4.336517667979933e-5 0.00017652330279815942 0.0023447179701179266
4.2152376408921555e-5 0.00019358719873707741 0.0022669541649520397
4.205681398161687e-5 0.0002116067917086184 0.002189106773585081
3.8072852476034313e-5 0.00022505408560391515 0.00211165938526392
3.158946492476389e-5 0.00023017468629404902 0.002034940291196108
2.760080860753078e-5 0.00022524059750139713 0.001959101064130664
2.850641067198012e-5 0.00021071995433885607 0.0018841006094589832
3.2207175536314026e-5 0.00018901821749750525 0.0018097283318638802
3.3850083127617836e-5 0.0001636481611058116 0.0017356770113110544
3.2291711249854416e-5 0.00013898707402404398 0.0016615636413916945
3.161442145938054e-5 0.00011966997408308087 0.001586982631124556
3.356763409101404e-5 0.0001091511076083407 0.0015116319991648197
3.538468081387691e-5 0.00010887320968322455 0.0014353854348883033
3.4792101359926164e-5 0.00011719104077201337 0.001358386711217463
3.270775778219104e-5 0.00012876161781605333 0.0012811034685000777
3.0274881282821298e-5 0.00013619310630019754 0.001204182393848896
2.6943627744913098e-5 0.00013257411774247885 0.0011282280320301652
2.1934773030807264e-5 0.00011309773981338367 0.0010536611080169678
1.506981334387092e-5 7.401588663924485e-5 0.0009808093309402466
6.568267963302787e-6 1.103288923332002e-5 0.0009100487222895026
-3.061904180867714e-6 -7.825090870028362e-5 0.0008415891206823289
-1.3021096492593642e-5 -0.00019055527809541672 0.0007751435623504221
-2.2314161469694227e-5 -0.0003160035121254623 0.0007098478963598609
-2.9934990379842926e-5 -0.00043961772462353116 0.0006443918100558221
-3.506556458887644e-5 -0.0005440715467557311 0.0005772594013251364
-3.721884422702715e-5 -0.0006128076347522438 0.0005070020561106503
-1.8757042198558338e-5 -0.00031816092086955905 0.00023546192096546292

CELL_DATA 50

VECTORS liftinglineloading               float
0.13865922391414642 -0.12892575562000275 3.192656966521202e-16
0.2130958288908005 -0.22542937099933624 5.582427284207814e-16
-0.13775336742401123 -0.07101157307624817 1.7584971761771731e-16
0.026114029809832576 -0.08484089374542236 2.100960008290375e-16
0.4072403013706208 -0.08242068439722061 2.0410271333162132e-16
-0.006995708215981722 -0.22748993337154388 5.633453607741597e-16
-1.0605366230010986 -0.5962918400764465 1.476629148816633e-15
-2.2056448459625244 -0.9214218854904175 2.281765940675604e-15
-3.725632905960083 -1.3373957872390747 3.311864095413477e-15
-5.125396728515625 -1.6642286777496338 4.121217629042117e-15
-6.512463092803955 -1.9483845233917236 4.824887708874785e-15
-7.941971302032471 -2.2193055152893066 5.4957839663958164e-15
-8.928592681884766 -2.397630453109741 5.937379087732688e-15
-9.519854545593262 -2.4576480388641357 6.086004147339138e-15
-9.90949821472168 -2.4487342834472656 6.063930892250164e-15
-10.770262718200684 -2.512383222579956 6.221548053624665e-15
-11.08675479888916 -2.4596359729766846 6.090926679312106e-15
-11.713997840881348 -2.4965062141418457 6.182230901795489e-15
-12.02591609954834 -2.4588236808776855 6.088915399578851e-15
-12.536791801452637 -2.4721364974975586 6.121882768918936e-15
-12.762463569641113 -2.443199872970581 6.0502254756471165e-15
-13.46198558807373 -2.4426629543304443 6.0488956339199265e-15
-13.398477554321287 -2.307572841644287 5.714365053599525e-15
-13.603926658630371 -2.2600595951080322 5.5967054009623245e-15
-13.716118812561035 -2.1708009243011475 5.3756691887609995e-15
-13.961237907409668 -2.114734411239624 5.236829053761232e-15
-14.344270706176758 -2.0868873596191406 5.167869560426417e-15
-14.61410427093506 -2.0238680839538574 5.0118117867078114e-15
-14.737658500671387 -1.983162760734558 4.911011054336287e-15
-14.876604080200195 -1.9070228338241575 4.72246152027748e-15
-15.417475700378418 -1.8638435602188108 4.615534622114939e-15
-15.726655960083006 -1.7859259843826292 4.422583057829251e-15
-16.166839599609375 -1.6965593099594114 4.201279606733067e-15
-16.236652374267578 -1.5972353219985962 3.955318603025837e-15
-16.031064987182617 -1.5123525857925415 3.74511890683521e-15
-15.924969673156738 -1.450523853302002 3.592008807773049e-15
-15.854650497436523 -1.3882707357406616 3.437848599614529e-15
-15.588571548461914 -1.3559828996658325 3.357892289283749e-15
-15.310208320617676 -1.3445587158203125 3.329602235878403e-15
-15.00639533996582 -1.3284666538238525 3.2897523003254034e-15
-14.814130783081056 -1.3187106847763062 3.2655932266038162e-15
-13.818465232849123 -1.2679320573806763 3.139847373935653e-15
-12.486550331115723 -1.406597375869751 3.4832317778954675e-15
-10.553765296936035 -1.3672982454299927 3.3859131979701055e-15
-8.8643217086792 -1.5472182035446167 3.831458669214735e-15
-7.054433345794677 -1.627577304840088 4.0304559311614505e-15
-5.464975357055664 -1.5700770616531372 3.888065034046793e-15
-3.922205924987793 -1.4332990646362305 3.5493543461316908e-15
-2.593975067138672 -1.2796778678894043 3.1689342735861286e-15
-1.1819220781326294 -1.1292585134506226 2.796442641185104e-15