# vtk DataFile Version 4.0
 
ASCII
DATASET UNSTRUCTURED_GRID
POINTS 51 float
0.002990470267832279 0.0058628409169614315 -0.00458339462056756
0.002663540421053767 0.009976997971534729 -0.005021987948566675
0.0024158067535609007 0.014001703821122646 -0.005611230153590441
0.0021610232070088387 0.01796245574951172 -0.006059692706912756
0.0018239807104691865 0.021845325827598572 -0.00652656052261591
0.0014375883620232344 0.02564777061343193 -0.007040919736027718
0.0011537274112924933 0.029392935335636135 -0.007338205352425576
0.0011058691889047623 0.03306693211197853 -0.007577172480523586
0.0012308575678616762 0.036651257425546646 -0.007969300262629986
0.0014622097369283438 0.0401727594435215 -0.008207704871892929
0.0017137653194367886 0.043621063232421875 -0.008411040529608727
0.0019408058142289517 0.046985432505607605 -0.008701905608177185
0.0021194086875766516 0.050274454057216644 -0.008982283063232899
0.0022329261992126703 0.05349327996373176 -0.009193167090415955
0.0022873322013765574 0.0566399060189724 -0.00935756228864193
0.002315010642632842 0.05970975384116173 -0.009527693502604961
0.0023268242366611958 0.06269991397857666 -0.009736905805766582
0.002347409725189209 0.06560971587896347 -0.00999288447201252
0.002370904665440321 0.06844154000282288 -0.0102683175355196
0.002401149133220315 0.07119826972484589 -0.010530322790145874
0.0024429464247077703 0.07388171553611755 -0.010758168064057827
0.0024758127983659506 0.07649227231740952 -0.01094735972583294
0.0025140612851828337 0.07902849465608597 -0.011114487424492836
0.0025619138032197952 0.08148884773254395 -0.011276924051344395
0.0026071176398545504 0.08387236297130585 -0.011445941403508186
0.0026486441493034363 0.08617828786373138 -0.011629970744252205
0.0026914223562926054 0.0884062722325325 -0.011833115480840206
0.0027327577117830515 0.09055650234222412 -0.01205318421125412
0.0027675682213157415 0.09262958914041519 -0.012283223681151867
0.0027959367725998163 0.09462638199329376 -0.012513534165918827
0.002822769805788994 0.09654778987169266 -0.012733705341815948
0.002852949546650052 0.09839458018541336 -0.0129349734634161
0.0028871840331703424 0.10016724467277527 -0.013111741282045841
0.0029206497129052877 0.10186593234539033 -0.013262270018458366
0.0029517675284296274 0.10349037498235703 -0.013389715924859047
0.0029838785994797945 0.10503990203142168 -0.013501609675586224
0.003018902847543359 0.10651363432407379 -0.013608017936348915
0.0030546479392796755 0.10791067034006117 -0.013719356618821623
0.0030884870793670416 0.10923041403293611 -0.013842400163412094
0.0031200633384287357 0.11047288030385972 -0.013976879417896272
0.0031490367837250233 0.11163877695798874 -0.014114785939455034
0.003173950593918562 0.11272933334112169 -0.01424202788621187
0.003192906267940998 0.11374609917402267 -0.014340981841087341
0.003204090287908912 0.11469095200300217 -0.014390059746801853
0.0032060428056865926 0.1155661940574646 -0.014363047666847706
0.0031979666091501713 0.11637413501739502 -0.014233557507395746
0.0031800006981939077 0.11711648106575011 -0.013981936499476433
0.003153338097035885 0.11779382824897766 -0.013601550832390783
0.0031201306264847517 0.1184052675962448 -0.013102700933814049
0.003083207178860903 0.1189483478665352 -0.01251340750604868
0.003045693039894104 0.11941926926374435 -0.011877086013555527

CELLS 50 150
2 0 1
2 1 2
2 2 3
2 3 4
2 4 5
2 5 6
2 6 7
2 7 8
2 8 9
2 9 10
2 10 11
2 11 12
2 12 13
2 13 14
2 14 15
2 15 16
2 16 17
2 17 18
2 18 19
2 19 20
2 20 21
2 21 22
2 22 23
2 23 24
2 24 25
2 25 26
2 26 27
2 27 28
2 28 29
2 29 30
2 30 31
2 31 32
2 32 33
2 33 34
2 34 35
2 35 36
2 36 37
2 37 38
2 38 39
2 39 40
2 40 41
2 41 42
2 42 43
2 43 44
2 44 45
2 45 46
2 46 47
2 47 48
2 48 49
2 49 50

CELL_TYPES 50
4
4
4
4
4
4
4
4
4
4
4
4
4
4
4
4
4
4
4
4
4
4
4
4
4
4
4
4
4
4
4
4
4
4
4
4
4
4
4
4
4
4
4
4
4
4
4
4
4
4

POINT_DATA 51

SCALARS zone float
LOOKUP_TABLE default
1.0
1.0
1.0
1.0
1.0
1.0
1.0
1.0
1.0
1.0
1.0
1.0
1.0
1.0
1.0
1.0
1.0
1.0
1.0
1.0
1.0
1.0
1.0
1.0
1.0
1.0
1.0
1.0
1.0
1.0
1.0
1.0
1.0
1.0
1.0
1.0
1.0
1.0
1.0
1.0
1.0
1.0
1.0
1.0
1.0
1.0
1.0
1.0
1.0
1.0
1.0

VECTORS normals float
-0.00016346495249308646 0.0020570785272866488 -0.0002192965621361509
-0.00028733181534335017 0.004069431684911251 -0.0005139175918884575
-0.0002512586652301252 0.003992728888988495 -0.0005188523791730404
-0.0002959130215458572 0.003921811003237963 -0.0004576653300318867
-0.0003617173351813108 0.0038426574319601063 -0.0004906134563498199
-0.000335126620484516 0.0037738047540187836 -0.0004058224149048328
-0.00016585958655923605 0.0037095807492733 -0.00026812637224793434
3.856507100863382e-5 0.0036291610449552536 -0.0003155471640639007
0.00017817027401179075 0.003552914597094059 -0.0003152664576191455
0.0002414538903394714 0.0034849022049456835 -0.00022087039542384446
0.00023929805320221928 0.0034063365310430522 -0.00024710033903829753
0.00020282164041418582 0.0033266954123973846 -0.0002856212668120861
0.0001460601488361135 0.0032539232634007926 -0.0002456306538078934
8.396180783165619e-5 0.0031827257480472326 -0.00018763959815260023
4.104220715817064e-5 0.003108237637206912 -0.00016726322064641863
1.9746014004340395e-5 0.0030300060752779245 -0.000189671540283598
1.6199513993342407e-5 0.002949979854747653 -0.000232595280976966
2.2040156181901693e-5 0.0028708120808005333 -0.0002657059521880001
2.6869760404224508e-5 0.002794277621433139 -0.0002687191590666771
3.6020985135110095e-5 0.002720088232308626 -0.0002449254388920963
3.733187259058468e-5 0.002647002460435033 -0.00020851871522609144
3.555733201210387e-5 0.002573387697339058 -0.000178159520146437
4.305047696107067e-5 0.0024982872419059277 -0.0001647821336518973
4.652824645745568e-5 0.0024219334591180086 -0.00016572697495575994
4.336517667979933e-5 0.0023447179701179266 -0.00017652330279815942
4.2152376408921555e-5 0.0022669541649520397 -0.00019358719873707741
4.205681398161687e-5 0.002189106773585081 -0.0002116067917086184
3.8072852476034313e-5 0.00211165938526392 -0.00022505408560391515
3.158946492476389e-5 0.002034940291196108 -0.00023017468629404902
2.760080860753078e-5 0.001959101064130664 -0.00022524059750139713
2.850641067198012e-5 0.0018841006094589832 -0.00021071995433885607
3.2207175536314026e-5 0.0018097283318638802 -0.00018901821749750525
3.3850083127617836e-5 0.0017356770113110544 -0.0001636481611058116
3.2291711249854416e-5 0.0016615636413916945 -0.00013898707402404398
3.161442145938054e-5 0.001586982631124556 -0.00011966997408308087
3.356763409101404e-5 0.0015116319991648197 -0.0001091511076083407
3.538468081387691e-5 0.0014353854348883033 -0.00010887320968322455
3.4792101359926164e-5 0.001358386711217463 -0.00011719104077201337
3.270775778219104e-5 0.0012811034685000777 -0.00012876161781605333
3.0274881282821298e-5 0.001204182393848896 -0.00013619310630019754
2.6943627744913098e-5 0.0011282280320301652 -0.00013257411774247885
2.1934773030807264e-5 0.0010536611080169678 -0.00011309773981338367
1.506981334387092e-5 0.0009808093309402466 -7.401588663924485e-5
6.568267963302787e-6 0.0009100487222895026 -1.103288923332002e-5
-3.061904180867714e-6 0.0008415891206823289 7.825090870028362e-5
-1.3021096492593642e-5 0.0007751435623504221 0.00019055527809541672
-2.2314161469694227e-5 0.0007098478963598609 0.0003160035121254623
-2.9934990379842926e-5 0.0006443918100558221 0.00043961772462353116
-3.506556458887644e-5 0.0005772594013251364 0.0005440715467557311
-3.721884422702715e-5 0.0005070020561106503 0.0006128076347522438
-1.8757042198558338e-5 0.00023546192096546292 0.00031816092086955905

CELL_DATA 50

VECTORS liftinglineloading               float
0.08187473565340042 2.9324219753450794e-16 0.09000711143016815
0.07617569714784622 3.3719092551927094e-16 0.10349664092063904
-0.024956637993454933 1.8320222829768066e-16 0.056231681257486336
0.20592808723449707 3.0303686302008304e-16 0.0930134579539299
0.00865208450704813 6.794213794373497e-16 0.20854009687900543
-0.6475979089736938 1.3225778902709539e-15 0.4059491157531739
-1.8895189762115479 2.6096773820296877e-15 0.8010085821151733
-3.116962194442749 3.693726453309976e-15 1.133744239807129
-4.293740272521973 4.6698099522761525e-15 1.433341145515442
-5.726956844329834 5.703383271438373e-15 1.7505837678909302
-7.0856757164001465 6.551427576031695e-15 2.010880470275879
-8.469266891479492 7.389534913604303e-15 2.26812744140625
-9.43187141418457 7.931840134787344e-15 2.4345812797546387
-9.988428115844727 8.101864211256752e-15 2.4867682456970215
-10.402053833007812 8.090812125360978e-15 2.4833760261535645
-11.228938102722168 8.262714073874449e-15 2.5361392498016357
-11.553174018859863 8.073857913888736e-15 2.4781720638275146
-12.184812545776367 8.18265929596355e-15 2.5115673542022705
-12.495128631591797 8.022382027618197e-15 2.462372064590454
-12.995415687561035 8.046262427500138e-15 2.4697020053863525
-13.208337783813475 7.94356730594208e-15 2.438180923461914
-13.614703178405763 7.885108480054377e-15 2.4202375411987305
-13.473530769348145 7.445683880644843e-15 2.2853615283966064
-13.661965370178223 7.293986209022229e-15 2.238799810409546
-13.751780509948729 7.000723073892056e-15 2.1487863063812256
-13.985801696777342 6.819438117905375e-15 2.0931432247161865
-14.381745338439943 6.7349470049332325e-15 2.0672097206115723
-14.691007614135742 6.537628985804449e-15 2.006645441055298
-14.872013092041016 6.410519833607679e-15 1.9676307439804075
-15.083797454833983 6.164504619791826e-15 1.8921194076538088
-15.674883842468262 6.010273049107499e-15 1.844779849052429
-16.02628517150879 5.745821316161708e-15 1.7636096477508545
-16.594125747680664 5.455676956343325e-15 1.674553394317627
-16.728723526000977 5.1079080980902854e-15 1.5678099393844604
-16.569860458374023 4.826721958722064e-15 1.4815032482147217
-16.514949798583984 4.6244687021261034e-15 1.419424057006836
-16.481958389282227 4.430286822484529e-15 1.359822392463684
-16.20647621154785 4.328523013651976e-15 1.328587293624878
-15.950272560119629 4.303792616207466e-15 1.320996642112732
-15.667832374572754 4.259816783168391e-15 1.3074986934661865
-15.4348201751709 4.232350045787776e-15 1.2990682125091553
-14.410971641540527 4.0765798397547626e-15 1.2512563467025757
-12.98767948150635 4.572470196527109e-15 1.4034638404846191
-11.068279266357422 4.482552566978382e-15 1.3758647441864014
-9.30866813659668 5.12941172352223e-15 1.5744102001190186
-7.477317810058595 5.401525292992411e-15 1.6579322814941404
-5.818216800689697 5.2270356588250775e-15 1.604374647140503
-4.207528114318848 4.7857662216564244e-15 1.4689323902130127
-2.803558588027954 4.2808299765238755e-15 1.3139485120773315
-1.2873077392578125 3.780942471273436e-15 1.1605141162872314