# vtk DataFile Version 4.0
 
ASCII
DATASET UNSTRUCTURED_GRID
POINTS 51 float
0.002990470267832279 -0.004054973367601633 -0.006240000016987324
0.002663540421053767 -0.004133325070142746 -0.01037672720849514
0.0024158067535609007 -0.00436954852193594 -0.014437473379075527
0.0021610232070088387 -0.004471102729439735 -0.018422240391373634
0.0018239807104691865 -0.004597779363393784 -0.022331025451421738
0.0014375883620232344 -0.004778776317834854 -0.026163829490542415
0.0011537274112924933 -0.0047485181130468845 -0.029920652508735657
0.0011058691889047623 -0.004666366148740053 -0.03360149636864662
0.0012308575678616762 -0.0047446065582334995 -0.03720635920763016
0.0014622097369283438 -0.004675185773521662 -0.040735241025686264
0.0017137653194367886 -0.00457720784470439 -0.04418814182281494
0.0019408058142289517 -0.004573742393404245 -0.04756506159901619
0.0021194086875766516 -0.004566395655274391 -0.05086600035429001
0.0022329261992126703 -0.004495937842875719 -0.054090958088636405
0.0022873322013765574 -0.00438546109944582 -0.05723993852734566
0.002315010642632842 -0.004287390038371086 -0.06031293421983719
0.0023268242366611958 -0.004235195927321911 -0.06330995261669159
0.002347409725189209 -0.004236594773828983 -0.06623098999261856
0.002370904665440321 -0.004264169838279486 -0.0690760463476181
0.002401149133220315 -0.0042849136516451836 -0.07184511423110962
0.0024429464247077703 -0.004278013948351145 -0.0745382085442543
0.0024758127983659506 -0.004238960798829794 -0.07715532183647156
0.0025140612851828337 -0.004184406250715256 -0.07969645410776138
0.0025619138032197952 -0.004131791181862354 -0.08216160535812378
0.0026071176398545504 -0.0040924279019236565 -0.08455078303813934
0.0026486441493034363 -0.004074783064424992 -0.08686397224664688
0.0026914223562926054 -0.00408297311514616 -0.08910118043422699
0.0027327577117830515 -0.004114799667149782 -0.09126240760087967
0.0027675682213157415 -0.0041632819920778275 -0.09334765374660492
0.0027959367725998163 -0.004218683578073978 -0.09535692632198334
0.002822769805788994 -0.004270554985851049 -0.09729021042585373
0.002852949546650052 -0.00431009940803051 -0.09914752095937729
0.0028871840331703424 -0.004331696312874556 -0.10092884302139282
0.0029206497129052877 -0.004333601798862219 -0.10263418406248094
0.0029517675284296274 -0.004318983294069767 -0.10426355153322218
0.0029838785994797945 -0.004295401740819216 -0.10581693798303606
0.003018902847543359 -0.004272960126399994 -0.10729433596134187
0.0030546479392796755 -0.004262115340679884 -0.10869576036930083
0.0030884870793670416 -0.004269667901098728 -0.1100212037563324
0.0031200633384287357 -0.004295347724109888 -0.11127065867185593
0.0031490367837250233 -0.004331114701926708 -0.11244414001703264
0.003173950593918562 -0.004362823907285929 -0.11354164034128189
0.003192906267940998 -0.004372783936560154 -0.11456315964460372
0.003204090287908912 -0.004339326173067093 -0.11550869792699814
0.0032060428056865926 -0.004236133769154549 -0.11637825518846512
0.0031979666091501713 -0.004036720842123032 -0.11717183142900467
0.0031800006981939077 -0.003721357323229313 -0.11788942664861679
0.003153338097035885 -0.0032833842560648914 -0.11853104084730147
0.0031201306264847517 -0.0027331425808370113 -0.11909667402505875
0.003083207178860903 -0.0020987591706216335 -0.11958632618188858
0.003045693039894104 -0.0014238149160519242 -0.11999999731779097

CELLS 50 150
2 0 1
2 1 2
2 2 3
2 3 4
2 4 5
2 5 6
2 6 7
2 7 8
2 8 9
2 9 10
2 10 11
2 11 12
2 12 13
2 13 14
2 14 15
2 15 16
2 16 17
2 17 18
2 18 19
2 19 20
2 20 21
2 21 22
2 22 23
2 23 24
2 24 25
2 25 26
2 26 27
2 27 28
2 28 29
2 29 30
2 30 31
2 31 32
2 32 33
2 33 34
2 34 35
2 35 36
2 36 37
2 37 38
2 38 39
2 39 40
2 40 41
2 41 42
2 42 43
2 43 44
2 44 45
2 45 46
2 46 47
2 47 48
2 48 49
2 49 50

CELL_TYPES 50
4
4
4
4
4
4
4
4
4
4
4
4
4
4
4
4
4
4
4
4
4
4
4
4
4
4
4
4
4
4
4
4
4
4
4
4
4
4
4
4
4
4
4
4
4
4
4
4
4
4

POINT_DATA 51

SCALARS zone float
LOOKUP_TABLE default
1.0
1.0
1.0
1.0
1.0
1.0
1.0
1.0
1.0
1.0
1.0
1.0
1.0
1.0
1.0
1.0
1.0
1.0
1.0
1.0
1.0
1.0
1.0
1.0
1.0
1.0
1.0
1.0
1.0
1.0
1.0
1.0
1.0
1.0
1.0
1.0
1.0
1.0
1.0
1.0
1.0
1.0
1.0
1.0
1.0
1.0
1.0
1.0
1.0
1.0
1.0

VECTORS normals float
-0.00016346495249308646 -3.917586582247168e-5 -0.002068363595753908
-0.00028733181534335017 -0.0001572876499267295 -0.004098737146705389
-0.0002512586652301252 -0.0001688887714408338 -0.00402275612577796
-0.0002959130215458572 -0.00011411542800487952 -0.003946775570511818
-0.0003617173351813108 -0.0001538368233013898 -0.0038707947824150324
-0.000335126620484516 -7.53693821025081e-5 -0.003794813994318247
-0.00016585958655923605 5.620517913484946e-5 -0.003718833439052105
3.856507100863382e-5 1.9558240182959707e-6 -0.0036428526509553194
0.00017817027401179075 -4.4098615035181865e-6 -0.003566872095689177
0.0002414538903394714 8.369932766072452e-5 -0.0034908913075923915
0.00023929805320221928 5.07217446283903e-5 -0.003414910519495607
0.00020282164041418582 5.406232048699167e-6 -0.003338929964229465
0.0001460601488361135 3.8902122469153255e-5 -0.003262949176132679
8.396180783165619e-5 9.046726336237043e-5 -0.0031869683880358934
4.104220715817064e-5 0.00010427402594359592 -0.0031109878327697515
1.9746014004340395e-5 7.513265882153064e-5 -0.003035007044672966
1.6199513993342407e-5 2.539750494179316e-5 -0.0029590262565761805
2.2040156181901693e-5 -1.4487103726423811e-5 -0.0028830457013100386
2.6869760404224508e-5 -2.4159277018043213e-5 -0.002807064913213253
3.6020985135110095e-5 -6.922104148543439e-6 -0.0027310841251164675
3.733187259058468e-5 2.2976237232796848e-5 -0.0026551035698503256
3.555733201210387e-5 4.680394704337232e-5 -0.00257912278175354
4.305047696107067e-5 5.358497583074495e-5 -0.002503142226487398
4.652824645745568e-5 4.598908708430827e-5 -0.0024271614383906126
4.336517667979933e-5 2.8504067813628357e-5 -0.002351180650293827
4.2152376408921555e-5 4.7275434553739615e-6 -0.002275200095027685
4.205681398161687e-5 -2.0008332285215147e-5 -0.0021992193069308996
3.8072852476034313e-5 -4.015445301774889e-5 -0.002123238518834114
3.158946492476389e-5 -5.194206823944114e-5 -0.002047257963567972
2.760080860753078e-5 -5.363656964618713e-5 -0.0019712771754711866
2.850641067198012e-5 -4.570791861624457e-5 -0.0018952965037897231
3.2207175536314026e-5 -3.057073263335042e-5 -0.0018193157156929374
3.3850083127617836e-5 -1.1751208148780279e-5 -0.0017433350440114737
3.2291711249854416e-5 6.356615358527051e-6 -0.00166735437233001
3.161442145938054e-5 1.910006358230021e-5 -0.0015913737006485462
3.356763409101404e-5 2.3011656594462693e-5 -0.0015153929125517607
3.538468081387691e-5 1.6643167327856645e-5 -0.001439412240870297
3.4792101359926164e-5 1.6461082168461871e-6 -0.0013634315691888332
3.270775778219104e-5 -1.6616108041489497e-5 -0.0012874507810920477
3.0274881282821298e-5 -3.0723433155799285e-5 -0.001211470109410584
2.6943627744913098e-5 -3.373807339812629e-5 -0.0011354894377291203
2.1934773030807264e-5 -2.083475010294933e-5 -0.0010595087660476565
1.506981334387092e-5 1.1748934412025847e-5 -0.000983527977950871
6.568267963302787e-6 6.832506915088743e-5 -0.0009075473062694074
-3.061904180867714e-6 0.00015130246174521744 -0.0008315665763802826
-1.3021096492593642e-5 0.00025738836848177016 -0.0007555859046988189
-2.2314161469694227e-5 0.0003766683512367308 -0.0006796051748096943
-2.9934990379842926e-5 0.0004941073129884899 -0.0006036245031282306
-3.506556458887644e-5 0.000592312659136951 -0.0005276437732391059
-3.721884422702715e-5 0.0006546638906002045 -0.0004516630724538117
-1.8757042198558338e-5 0.0003374720981810242 -0.00020683636830653995

CELL_DATA 50

VECTORS liftinglineloading               float
0.058749109506607056 0.07316330075263977 0.006400959566235543
0.0053613027557730675 0.02450711652636528 0.0021440947894006968
0.046213943511247635 0.06265785545110703 0.005481851752847433
0.15160413086414337 0.12359961867332458 0.01081356592476368
-0.1424337923526764 0.2431551516056061 0.02127332054078579
-0.820852518081665 0.4491958022117614 0.03929954022169113
-2.0528221130371094 0.8293999433517456 0.07256309688091278
-3.173069715499878 1.1350897550582886 0.09930748492479324
-4.224355220794678 1.4082354307174683 0.12320463359355927
-5.560654163360596 1.7093534469604492 0.14954905211925507
-6.825989246368409 1.9589030742645266 0.17138180136680603
-8.152374267578125 2.2108471393585205 0.1934240609407425
-9.00959587097168 2.3660495281219482 0.20700252056121826
-9.533377647399902 2.4187235832214355 0.21161088347434998
-9.896952629089355 2.4108877182006836 0.21092535555362701
-10.715008735656738 2.4704933166503906 0.21614015102386475
-11.34292984008789 2.4516584873199463 0.21449232101440432
-11.996264457702637 2.4899439811706543 0.21784187853336331
-12.304349899291992 2.446157217025757 0.21401102840900418
-12.783178329467773 2.4554810523986816 0.21482676267623904
-12.959314346313477 2.4242212772369385 0.2120918929576874
-13.320636749267578 2.4052605628967285 0.21043303608894345
-13.164806365966797 2.2692196369171143 0.19853098690509796
-13.391458511352539 2.223872423171997 0.194563627243042
-13.475633621215819 2.1374223232269287 0.18700021505355835
-13.691569328308105 2.0839898586273193 0.18232549726963043
-14.041419982910154 2.0578131675720215 0.1800353229045868
-14.279736518859863 1.9971730709075928 0.17473000288009644
-14.516982078552248 1.9609664678573608 0.1715623289346695
-14.716757774353027 1.8882733583450315 0.16520251333713531
-15.353569984436033 1.8469793796539307 0.16158975660800934
-15.73935604095459 1.7690908908843994 0.15477539598941803
-16.278667449951172 1.6798182725906374 0.14696505665779114
-16.437637329101562 1.576916217803955 0.13796229660511017
-16.276647567749023 1.4910576343536377 0.13045065104961395
-16.2414608001709 1.4279706478118896 0.12493124604225159
-16.226835250854492 1.3663872480392456 0.11954339593648912
-15.979694366455076 1.33405601978302 0.11671477556228638
-15.73284912109375 1.3246288299560547 0.1158900111913681
-15.454659461975098 1.3100228309631348 0.1146121472120285
-15.241057395935059 1.3009858131408691 0.11382151395082474
-14.256370544433594 1.2517670392990112 0.10951542109251022
-12.856380462646484 1.3997739553451538 0.12246435135602951
-10.948208808898926 1.3695049285888672 0.11981616169214249
-9.201130867004395 1.5631133317947388 0.13675470650196075
-7.371372222900391 1.6456459760665894 0.1439753770828247
-5.72745943069458 1.5912516117095947 0.13921646773815155
-4.133002281188965 1.4559147357940674 0.1273760348558426
-2.748581647872925 1.3018345832824707 0.11389576643705367
-1.2596558332443237 1.1497421264648438 0.10058940947055817