# vtk DataFile Version 4.0
 
ASCII
DATASET UNSTRUCTURED_GRID
POINTS 51 float
0.002990470267832279 0.0058628409169614315 -0.00458339462056756
0.002663540421053767 0.009976997971534729 -0.005021987948566675
0.0024158067535609007 0.014001703821122646 -0.005611230153590441
0.0021610232070088387 0.01796245574951172 -0.006059692706912756
0.0018239807104691865 0.021845325827598572 -0.00652656052261591
0.0014375883620232344 0.02564777061343193 -0.007040919736027718
0.0011537274112924933 0.029392935335636135 -0.007338205352425576
0.0011058691889047623 0.03306693211197853 -0.007577172480523586
0.0012308575678616762 0.036651257425546646 -0.007969300262629986
0.0014622097369283438 0.0401727594435215 -0.008207704871892929
0.0017137653194367886 0.043621063232421875 -0.008411040529608727
0.0019408058142289517 0.046985432505607605 -0.008701905608177185
0.0021194086875766516 0.050274454057216644 -0.008982283063232899
0.0022329261992126703 0.05349327996373176 -0.009193167090415955
0.0022873322013765574 0.0566399060189724 -0.00935756228864193
0.002315010642632842 0.05970975384116173 -0.009527693502604961
0.0023268242366611958 0.06269991397857666 -0.009736905805766582
0.002347409725189209 0.06560971587896347 -0.00999288447201252
0.002370904665440321 0.06844154000282288 -0.0102683175355196
0.002401149133220315 0.07119826972484589 -0.010530322790145874
0.0024429464247077703 0.07388171553611755 -0.010758168064057827
0.0024758127983659506 0.07649227231740952 -0.01094735972583294
0.0025140612851828337 0.07902849465608597 -0.011114487424492836
0.0025619138032197952 0.08148884773254395 -0.011276924051344395
0.0026071176398545504 0.08387236297130585 -0.011445941403508186
0.0026486441493034363 0.08617828786373138 -0.011629970744252205
0.0026914223562926054 0.0884062722325325 -0.011833115480840206
0.0027327577117830515 0.09055650234222412 -0.01205318421125412
0.0027675682213157415 0.09262958914041519 -0.012283223681151867
0.0027959367725998163 0.09462638199329376 -0.012513534165918827
0.002822769805788994 0.09654778987169266 -0.012733705341815948
0.002852949546650052 0.09839458018541336 -0.0129349734634161
0.0028871840331703424 0.10016724467277527 -0.013111741282045841
0.0029206497129052877 0.10186593234539033 -0.013262270018458366
0.0029517675284296274 0.10349037498235703 -0.013389715924859047
0.0029838785994797945 0.10503990203142168 -0.013501609675586224
0.003018902847543359 0.10651363432407379 -0.013608017936348915
0.0030546479392796755 0.10791067034006117 -0.013719356618821623
0.0030884870793670416 0.10923041403293611 -0.013842400163412094
0.0031200633384287357 0.11047288030385972 -0.013976879417896272
0.0031490367837250233 0.11163877695798874 -0.014114785939455034
0.003173950593918562 0.11272933334112169 -0.01424202788621187
0.003192906267940998 0.11374609917402267 -0.014340981841087341
0.003204090287908912 0.11469095200300217 -0.014390059746801853
0.0032060428056865926 0.1155661940574646 -0.014363047666847706
0.0031979666091501713 0.11637413501739502 -0.014233557507395746
0.0031800006981939077 0.11711648106575011 -0.013981936499476433
0.003153338097035885 0.11779382824897766 -0.013601550832390783
0.0031201306264847517 0.1184052675962448 -0.013102700933814049
0.003083207178860903 0.1189483478665352 -0.01251340750604868
0.003045693039894104 0.11941926926374435 -0.011877086013555527

CELLS 50 150
2 0 1
2 1 2
2 2 3
2 3 4
2 4 5
2 5 6
2 6 7
2 7 8
2 8 9
2 9 10
2 10 11
2 11 12
2 12 13
2 13 14
2 14 15
2 15 16
2 16 17
2 17 18
2 18 19
2 19 20
2 20 21
2 21 22
2 22 23
2 23 24
2 24 25
2 25 26
2 26 27
2 27 28
2 28 29
2 29 30
2 30 31
2 31 32
2 32 33
2 33 34
2 34 35
2 35 36
2 36 37
2 37 38
2 38 39
2 39 40
2 40 41
2 41 42
2 42 43
2 43 44
2 44 45
2 45 46
2 46 47
2 47 48
2 48 49
2 49 50

CELL_TYPES 50
4
4
4
4
4
4
4
4
4
4
4
4
4
4
4
4
4
4
4
4
4
4
4
4
4
4
4
4
4
4
4
4
4
4
4
4
4
4
4
4
4
4
4
4
4
4
4
4
4
4

POINT_DATA 51

SCALARS zone float
LOOKUP_TABLE default
1.0
1.0
1.0
1.0
1.0
1.0
1.0
1.0
1.0
1.0
1.0
1.0
1.0
1.0
1.0
1.0
1.0
1.0
1.0
1.0
1.0
1.0
1.0
1.0
1.0
1.0
1.0
1.0
1.0
1.0
1.0
1.0
1.0
1.0
1.0
1.0
1.0
1.0
1.0
1.0
1.0
1.0
1.0
1.0
1.0
1.0
1.0
1.0
1.0
1.0
1.0

VECTORS normals float
-0.00016346495249308646 0.0020570785272866488 -0.0002192965621361509
-0.00028733181534335017 0.004069431684911251 -0.0005139175918884575
-0.0002512586652301252 0.003992728888988495 -0.0005188523791730404
-0.0002959130215458572 0.003921811003237963 -0.0004576653300318867
-0.0003617173351813108 0.0038426574319601063 -0.0004906134563498199
-0.000335126620484516 0.0037738047540187836 -0.0004058224149048328
-0.00016585958655923605 0.0037095807492733 -0.00026812637224793434
3.856507100863382e-5 0.0036291610449552536 -0.0003155471640639007
0.00017817027401179075 0.003552914597094059 -0.0003152664576191455
0.0002414538903394714 0.0034849022049456835 -0.00022087039542384446
0.00023929805320221928 0.0034063365310430522 -0.00024710033903829753
0.00020282164041418582 0.0033266954123973846 -0.0002856212668120861
0.0001460601488361135 0.0032539232634007926 -0.0002456306538078934
8.396180783165619e-5 0.0031827257480472326 -0.00018763959815260023
4.104220715817064e-5 0.003108237637206912 -0.00016726322064641863
1.9746014004340395e-5 0.0030300060752779245 -0.000189671540283598
1.6199513993342407e-5 0.002949979854747653 -0.000232595280976966
2.2040156181901693e-5 0.0028708120808005333 -0.0002657059521880001
2.6869760404224508e-5 0.002794277621433139 -0.0002687191590666771
3.6020985135110095e-5 0.002720088232308626 -0.0002449254388920963
3.733187259058468e-5 0.002647002460435033 -0.00020851871522609144
3.555733201210387e-5 0.002573387697339058 -0.000178159520146437
4.305047696107067e-5 0.0024982872419059277 -0.0001647821336518973
4.652824645745568e-5 0.0024219334591180086 -0.00016572697495575994
4.336517667979933e-5 0.0023447179701179266 -0.00017652330279815942
4.2152376408921555e-5 0.0022669541649520397 -0.00019358719873707741
4.205681398161687e-5 0.002189106773585081 -0.0002116067917086184
3.8072852476034313e-5 0.00211165938526392 -0.00022505408560391515
3.158946492476389e-5 0.002034940291196108 -0.00023017468629404902
2.760080860753078e-5 0.001959101064130664 -0.00022524059750139713
2.850641067198012e-5 0.0018841006094589832 -0.00021071995433885607
3.2207175536314026e-5 0.0018097283318638802 -0.00018901821749750525
3.3850083127617836e-5 0.0017356770113110544 -0.0001636481611058116
3.2291711249854416e-5 0.0016615636413916945 -0.00013898707402404398
3.161442145938054e-5 0.001586982631124556 -0.00011966997408308087
3.356763409101404e-5 0.0015116319991648197 -0.0001091511076083407
3.538468081387691e-5 0.0014353854348883033 -0.00010887320968322455
3.4792101359926164e-5 0.001358386711217463 -0.00011719104077201337
3.270775778219104e-5 0.0012811034685000777 -0.00012876161781605333
3.0274881282821298e-5 0.001204182393848896 -0.00013619310630019754
2.6943627744913098e-5 0.0011282280320301652 -0.00013257411774247885
2.1934773030807264e-5 0.0010536611080169678 -0.00011309773981338367
1.506981334387092e-5 0.0009808093309402466 -7.401588663924485e-5
6.568267963302787e-6 0.0009100487222895026 -1.103288923332002e-5
-3.061904180867714e-6 0.0008415891206823289 7.825090870028362e-5
-1.3021096492593642e-5 0.0007751435623504221 0.00019055527809541672
-2.2314161469694227e-5 0.0007098478963598609 0.0003160035121254623
-2.9934990379842926e-5 0.0006443918100558221 0.00043961772462353116
-3.506556458887644e-5 0.0005772594013251364 0.0005440715467557311
-3.721884422702715e-5 0.0005070020561106503 0.0006128076347522438
-1.8757042198558338e-5 0.00023546192096546292 0.00031816092086955905

CELL_DATA 50

VECTORS liftinglineloading               float
0.05248278006911278 2.251186727790744e-16 0.06913379579782486
-0.015745949000120163 2.4010687445862498e-17 0.007373665925115347
0.06404542177915573 2.3680685394845686e-16 0.07272322475910187
0.08876821398735046 4.7213367664026445e-16 0.144991934299469
-0.21930189430713654 8.60816820284088e-16 0.26435625553131104
-0.9443464279174805 1.580928868414146e-15 0.48550218343734747
-2.1918511390686035 2.8104284256936932e-15 0.8630806803703307
-3.2717144489288335 3.776208827647705e-15 1.1596710681915283
-4.257293224334717 4.6191789813705e-15 1.4185466766357422
-5.529984951019287 5.5643055436969e-15 1.7087944746017454
-6.72703218460083 6.343957443513595e-15 1.948225021362305
-7.993761062622069 7.136856515108873e-15 2.1917238235473633
-8.887158393859863 7.667571784474633e-15 2.354706287384033
-9.433622360229492 7.847005549955089e-15 2.4098100662231445
-9.829477310180664 7.831983420635534e-15 2.4051969051361084
-10.685559272766113 8.0387314575661e-15 2.46868896484375
-11.021915435791016 7.87757412198855e-15 2.4191977977752686
-11.659281730651855 8.003092546310375e-15 2.4577441215515137
-11.977202415466309 7.878454189220747e-15 2.4194679260253906
-12.477866172790527 7.920565279226442e-15 2.4324002265930176
-12.687850952148438 7.8292635978419e-15 2.4043614864349365
-13.08700180053711 7.776589159950997e-15 2.388185501098633
-12.984486579895021 7.346916450863203e-15 2.2562332153320312
-13.150317192077637 7.197247423149263e-15 2.2102696895599365
-13.248871803283691 6.925196110600705e-15 2.126723051071167
-13.498430252075194 6.759984451821122e-15 2.075986623764038
-13.896891593933105 6.681532683762903e-15 2.051894187927246
-14.211169242858887 6.4921890563160445e-15 1.9937468767166135
-14.427985191345215 6.3758795741967675e-15 1.9580283164978027
-14.656913757324219 6.142382660308385e-15 1.8863216638565063
-15.393410682678224 6.0062077144771515e-15 1.844502329826355
-15.865551948547365 5.743975207853167e-15 1.763970971107483
-16.504140853881836 5.449852757798005e-15 1.6736460924148557
-16.72722816467285 5.0960187201261505e-15 1.5649839639663696
-16.647153854370117 4.8058849482196086e-15 1.4758840799331665
-16.664180755615234 4.5956454414804605e-15 1.411319613456726
-16.659067153930664 4.401867596554726e-15 1.3518105745315552
-16.422212600708008 4.296840593292876e-15 1.3195568323135376
-16.20761489868164 4.273342628786621e-15 1.3123406171798706
-15.962632179260254 4.230555182972544e-15 1.2992006540298462
-15.736460685729982 4.203958348428759e-15 1.2910327911376953
-14.716943740844727 4.052919668439108e-15 1.2446489334106445
-13.265885353088377 4.570614347339675e-15 1.403632640838623
-11.33383560180664 4.498021929694087e-15 1.381339430809021
-9.557550430297852 5.171245833754173e-15 1.5880860090255737
-7.723564624786376 5.4480833059711905e-15 1.6731027364730837
-6.036842346191406 5.28082394504162e-15 1.6217373609542847
-4.394501209259033 4.8429138405417776e-15 1.487255573272705
-2.9438891410827637 4.336978520047942e-15 1.331883192062378
-1.3662854433059692 3.833651213998703e-15 1.1773117780685425