# vtk DataFile Version 4.0
 
ASCII
DATASET UNSTRUCTURED_GRID
POINTS 51 float
0.002990470267832279 -0.002301772590726614 -0.007076881360262632
0.002663540421053767 -0.0013067908585071564 -0.01109293196350336
0.0024158067535609007 -0.00048396675265394157 -0.015076451003551485
0.0021610232070088387 0.00044927292037755246 -0.018951723352074623
0.0018239807104691865 0.0013385805068537593 -0.02276010625064373
0.0014375883620232344 0.0021557537838816643 -0.026509156450629234
0.0011537274112924933 0.0031573183368891478 -0.03013013862073421
0.0011058691889047623 0.00418934365734458 -0.03366429731249809
0.0012308575678616762 0.005046776030212641 -0.03716657683253288
0.0014622097369283438 0.00602717325091362 -0.040557246655225754
0.0017137653194367886 0.007015489041805267 -0.04386713355779648
0.0019408058142289517 0.007892847992479801 -0.047128092497587204
0.0021194086875766516 0.008754290640354156 -0.05031465366482735
0.0022329261992126703 0.009657028131186962 -0.053411487489938736
0.0022873322013765574 0.010578756220638752 -0.05642457306385041
0.002315010642632842 0.011468835175037384 -0.059367481619119644
0.0023268242366611958 0.012294935993850231 -0.06224886700510979
0.002347409725189209 0.013049604371190071 -0.0650707334280014
0.002370904665440321 0.01375932339578867 -0.06782598048448563
0.002401149133220315 0.014455975964665413 -0.07050607353448868
0.0024429464247077703 0.015159664675593376 -0.07310561835765839
0.0024758127983659506 0.015874745324254036 -0.07562344521284103
0.0025140612851828337 0.016585133969783783 -0.07806386798620224
0.0025619138032197952 0.017273984849452972 -0.08043140918016434
0.0026071176398545504 0.017930369824171066 -0.08272898197174072
0.0026486441493034363 0.01854611188173294 -0.08495878428220749
0.0026914223562926054 0.019117232412099838 -0.08712188154459
0.0027327577117830515 0.01964585855603218 -0.08921770751476288
0.0027675682213157415 0.020138729363679886 -0.09124445170164108
0.0027959367725998163 0.02060525305569172 -0.09319958835840225
0.002822769805788994 0.021055519580841064 -0.0950804278254509
0.002852949546650052 0.021498030051589012 -0.09688468277454376
0.0028871840331703424 0.021938208490610123 -0.09861090034246445
0.0029206497129052877 0.02237774431705475 -0.10025863349437714
0.0029517675284296274 0.022813575342297554 -0.10182869434356691
0.0029838785994797945 0.023238398134708405 -0.10332304239273071
0.003018902847543359 0.02364245615899563 -0.10474429279565811
0.0030546479392796755 0.024015644565224648 -0.10609515756368637
0.0030884870793670416 0.024351399391889572 -0.10737738758325577
0.0031200633384287357 0.024649979546666145 -0.10859092324972153
0.0031490367837250233 0.02491915039718151 -0.10973367840051651
0.003173950593918562 0.025172574445605278 -0.11080198734998704
0.003192906267940998 0.02542734146118164 -0.11179127544164658
0.003204090287908912 0.02570438385009766 -0.11269593238830568
0.0032060428056865926 0.026029117405414585 -0.11350915580987932
0.0031979666091501713 0.026427127420902252 -0.11422407627105713
0.0031800006981939077 0.0269174724817276 -0.11483559757471085
0.003153338097035885 0.027506584301590916 -0.11534199118614198
0.0031201306264847517 0.028184473514556885 -0.1157459393143654
0.003083207178860903 0.028923973441123962 -0.11605472117662431
0.003045693039894104 0.02968298643827438 -0.11627960950136185

CELLS 50 150
2 0 1
2 1 2
2 2 3
2 3 4
2 4 5
2 5 6
2 6 7
2 7 8
2 8 9
2 9 10
2 10 11
2 11 12
2 12 13
2 13 14
2 14 15
2 15 16
2 16 17
2 17 18
2 18 19
2 19 20
2 20 21
2 21 22
2 22 23
2 23 24
2 24 25
2 25 26
2 26 27
2 27 28
2 28 29
2 29 30
2 30 31
2 31 32
2 32 33
2 33 34
2 34 35
2 35 36
2 36 37
2 37 38
2 38 39
2 39 40
2 40 41
2 41 42
2 42 43
2 43 44
2 44 45
2 45 46
2 46 47
2 47 48
2 48 49
2 49 50

CELL_TYPES 50
4
4
4
4
4
4
4
4
4
4
4
4
4
4
4
4
4
4
4
4
4
4
4
4
4
4
4
4
4
4
4
4
4
4
4
4
4
4
4
4
4
4
4
4
4
4
4
4
4
4

POINT_DATA 51

SCALARS zone float
LOOKUP_TABLE default
1.0
1.0
1.0
1.0
1.0
1.0
1.0
1.0
1.0
1.0
1.0
1.0
1.0
1.0
1.0
1.0
1.0
1.0
1.0
1.0
1.0
1.0
1.0
1.0
1.0
1.0
1.0
1.0
1.0
1.0
1.0
1.0
1.0
1.0
1.0
1.0
1.0
1.0
1.0
1.0
1.0
1.0
1.0
1.0
1.0
1.0
1.0
1.0
1.0
1.0
1.0

VECTORS normals float
-0.00016346495249308646 0.0004974909243173897 -0.002008025301620364
-0.00028733181534335017 0.000908902962692082 -0.003999785054475069
-0.0002512586652301252 0.0008780318894423544 -0.003929395694285631
-0.0002959130215458572 0.0009112736443057655 -0.0038418276235461235
-0.0003617173351813108 0.0008532404317520559 -0.003778716549277306
-0.000335126620484516 0.0009093689150176941 -0.0036850159522145982
-0.00016585958655923605 0.0010167949367314577 -0.0035775701981037855
3.856507100863382e-5 0.0009447288466617465 -0.0035182193387299776
0.00017817027401179075 0.0009189147967845201 -0.003446475137025118
0.0002414538903394714 0.0009843565057963133 -0.003350279061123729
0.00023929805320221928 0.0009328373125754296 -0.003285422455519438
0.00020282164041418582 0.0008694006828591228 -0.003223759355023503
0.0001460601488361135 0.0008820899529382586 -0.003141698194667697
8.396180783165619e-5 0.0009122327901422977 -0.003054960398003459
4.104220715817064e-5 0.0009059038711711764 -0.002977995201945305
1.9746014004340395e-5 0.0008580901776440442 -0.0029121460393071175
1.6199513993342407e-5 0.0007903844816610217 -0.002851626602932811
2.2040156181901693e-5 0.0007321936427615583 -0.0027885576710104942
2.6869760404224508e-5 0.0007031857967376709 -0.002717669354751706
3.6020985135110095e-5 0.0007001703488640487 -0.0026398163754493
3.733187259058468e-5 0.0007093846797943115 -0.0025586863048374653
3.555733201210387e-5 0.0007127352291718125 -0.0024791276082396507
4.305047696107067e-5 0.000699619937222451 -0.0024039808195084333
4.652824645745568e-5 0.0006726176361553371 -0.002332555130124092
4.336517667979933e-5 0.0006360631668940187 -0.002263688715174794
4.2152376408921555e-5 0.0005934315267950296 -0.002196450950577855
4.205681398161687e-5 0.0005498732789419591 -0.0021294611506164074
3.8072852476034313e-5 0.000510748359374702 -0.0020612836815416813
3.158946492476389e-5 0.0004796971334144473 -0.0019909427501261234
2.760080860753078e-5 0.00045839513768441975 -0.0019179896917194128
2.850641067198012e-5 0.00044638835242949426 -0.001842545927502215
3.2207175536314026e-5 0.00044134451309219003 -0.0017652363749220965
3.3850083127617836e-5 0.0004398575110826641 -0.0016869738465175033
3.2291711249854416e-5 0.00043768307659775024 -0.0016088953707367182
3.161442145938054e-5 0.00043032705434598034 -0.0015322054969146848
3.356763409101404e-5 0.0004144401173107326 -0.0014578013215214014
3.538468081387691e-5 0.0003886233607772738 -0.0013860579347237945
3.4792101359926164e-5 0.0003544720821082592 -0.0013165477430447936
3.270775778219104e-5 0.0003171668795403093 -0.0012478826101869345
3.0274881282821298e-5 0.00028387497877702117 -0.00117814214900136
2.6943627744913098e-5 0.0002612977987155318 -0.0011055306531488895
2.1934773030807264e-5 0.00025409620138816535 -0.001028799219056964
1.506981334387092e-5 0.0002659043821040541 -0.0009469742653891444
6.568267963302787e-6 0.00030088747735135257 -0.0008589395438320935
-3.061904180867714e-6 0.0003613722219597548 -0.0007640717085450888
-1.3021096492593642e-5 0.0004441780911292881 -0.0006632229196839035
-2.2314161469694227e-5 0.0005397284403443336 -0.0005589592619799078
-2.9934990379842926e-5 0.0006335005164146423 -0.0004551720921881497
-3.506556458887644e-5 0.0007086943369358778 -0.0003563629579730332
-3.721884422702715e-5 0.0007492557633668184 -0.0002668335509952158
-1.8757042198558338e-5 0.000379506207536906 -0.00011244438064750284

CELL_DATA 50

VECTORS liftinglineloading               float
0.052058883011341095 0.06477741152048111 0.023577049374580383
-0.017052751034498215 0.006563101895153522 0.0023887737188488245
0.06552375108003616 0.07009368389844894 0.02551201358437538
0.07864939421415329 0.14019687473773956 0.051027487963438034
-0.23905357718467712 0.25495925545692444 0.09279758483171463
-0.9961597323417662 0.47146850824356074 0.17160050570964813
-2.282956123352051 0.832613706588745 0.3030466139316559
-3.3910973072052006 1.1168733835220337 0.4065086543560028
-4.384148597717285 1.360100507736206 0.49503612518310547
-5.679316520690918 1.6366270780563357 0.5956835150718689
-6.87905216217041 1.8611482381820679 0.6774025559425354
-8.139091491699219 2.089247226715088 0.7604237794876099
-9.017951011657715 2.2403478622436523 0.8154199123382568
-9.544310569763184 2.2891793251037598 0.8331931829452516
-9.921606063842773 2.2818949222564697 0.8305417895317078
-10.766495704650879 2.3398349285125732 0.8516302704811096
-11.088968276977539 2.291274070739746 0.8339555859565735
-11.714427947998047 2.3262219429016113 0.8466755747795106
-12.014931678771973 2.289088726043701 0.8331601023674011
-12.494146347045898 2.2999818325042725 0.8371249437332153
-12.672857284545898 2.2715508937835693 0.8267769217491149
-13.032706260681152 2.253666400909424 0.8202674984931946
-12.897435188293457 2.127655029296875 0.7744030952453613
-13.016427040100098 2.081810712814331 0.7577171325683594
-13.072035789489746 2.003218650817871 0.729111909866333
-13.274331092834473 1.9554314613342285 0.7117188572883606
-13.60545539855957 1.9311294555664062 0.7028736472129822
-15.059242248535156 1.9005963802337646 0.6917605400085449
-15.205513954162596 1.8614791631698608 0.6775230169296265
-15.40471363067627 1.787729740142822 0.650680422782898
-15.981974601745605 1.7388603687286377 0.6328933835029602
-16.347126007080078 1.658833622932434 0.6037660837173462
-16.938058853149414 1.5746963024139404 0.5731425881385803
-17.09044075012207 1.4693732261657715 0.5348080992698669
-16.95233154296875 1.3860983848571777 0.5044985413551331
-16.92911148071289 1.3261616230010986 0.48268336057662964
-16.9254093170166 1.2702244520187378 0.4623239040374756
-16.655031204223633 1.2406117916107178 0.45154574513435364
-16.421405792236328 1.2348960638046265 0.44946542382240295
-16.161392211914062 1.2231370210647583 0.44518548250198364
-15.912727355957031 1.2158290147781372 0.44252556562423706
-14.871241569519043 1.1726908683776855 0.42682456970214844
-13.39253044128418 1.3243664503097534 0.4820299446582794
-11.438076972961426 1.3042083978652954 0.4746930301189422
-9.639534950256348 1.500172734260559 0.5460182428359985
-7.7915425300598145 1.5800154209136963 0.5750786066055298
-6.086899757385254 1.5312628746032715 0.5573341250419617
-4.428359031677246 1.4039615392684937 0.5110002160072327
-2.9690794944763184 1.2569187879562378 0.4574810266494751
-1.3738279342651367 1.110628604888916 0.40423575043678284