# vtk DataFile Version 4.0
 
ASCII
DATASET UNSTRUCTURED_GRID
POINTS 51 float
0.002990470267832279 -0.00458339462056756 -0.0058628409169614315
0.002663540421053767 -0.005021987948566675 -0.009976997971534729
0.0024158067535609007 -0.005611230153590441 -0.014001703821122646
0.0021610232070088387 -0.006059692706912756 -0.01796245574951172
0.0018239807104691865 -0.00652656052261591 -0.021845325827598572
0.0014375883620232344 -0.007040919736027718 -0.02564777061343193
0.0011537274112924933 -0.007338205352425576 -0.029392935335636135
0.0011058691889047623 -0.007577172480523586 -0.03306693211197853
0.0012308575678616762 -0.007969300262629986 -0.036651257425546646
0.0014622097369283438 -0.008207704871892929 -0.0401727594435215
0.0017137653194367886 -0.008411040529608727 -0.043621063232421875
0.0019408058142289517 -0.008701905608177185 -0.046985432505607605
0.0021194086875766516 -0.008982283063232899 -0.050274454057216644
0.0022329261992126703 -0.009193167090415955 -0.05349327996373176
0.0022873322013765574 -0.00935756228864193 -0.0566399060189724
0.002315010642632842 -0.009527693502604961 -0.05970975384116173
0.0023268242366611958 -0.009736905805766582 -0.06269991397857666
0.002347409725189209 -0.00999288447201252 -0.06560971587896347
0.002370904665440321 -0.0102683175355196 -0.06844154000282288
0.002401149133220315 -0.010530322790145874 -0.07119826972484589
0.0024429464247077703 -0.010758168064057827 -0.07388171553611755
0.0024758127983659506 -0.01094735972583294 -0.07649227231740952
0.0025140612851828337 -0.011114487424492836 -0.07902849465608597
0.0025619138032197952 -0.011276924051344395 -0.08148884773254395
0.0026071176398545504 -0.011445941403508186 -0.08387236297130585
0.0026486441493034363 -0.011629970744252205 -0.08617828786373138
0.0026914223562926054 -0.011833115480840206 -0.0884062722325325
0.0027327577117830515 -0.01205318421125412 -0.09055650234222412
0.0027675682213157415 -0.012283223681151867 -0.09262958914041519
0.0027959367725998163 -0.012513534165918827 -0.09462638199329376
0.002822769805788994 -0.012733705341815948 -0.09654778987169266
0.002852949546650052 -0.0129349734634161 -0.09839458018541336
0.0028871840331703424 -0.013111741282045841 -0.10016724467277527
0.0029206497129052877 -0.013262270018458366 -0.10186593234539033
0.0029517675284296274 -0.013389715924859047 -0.10349037498235703
0.0029838785994797945 -0.013501609675586224 -0.10503990203142168
0.003018902847543359 -0.013608017936348915 -0.10651363432407379
0.0030546479392796755 -0.013719356618821623 -0.10791067034006117
0.0030884870793670416 -0.013842400163412094 -0.10923041403293611
0.0031200633384287357 -0.013976879417896272 -0.11047288030385972
0.0031490367837250233 -0.014114785939455034 -0.11163877695798874
0.003173950593918562 -0.01424202788621187 -0.11272933334112169
0.003192906267940998 -0.014340981841087341 -0.11374609917402267
0.003204090287908912 -0.014390059746801853 -0.11469095200300217
0.0032060428056865926 -0.014363047666847706 -0.1155661940574646
0.0031979666091501713 -0.014233557507395746 -0.11637413501739502
0.0031800006981939077 -0.013981936499476433 -0.11711648106575011
0.003153338097035885 -0.013601550832390783 -0.11779382824897766
0.0031201306264847517 -0.013102700933814049 -0.1184052675962448
0.003083207178860903 -0.01251340750604868 -0.1189483478665352
0.003045693039894104 -0.011877086013555527 -0.11941926926374435

CELLS 50 150
2 0 1
2 1 2
2 2 3
2 3 4
2 4 5
2 5 6
2 6 7
2 7 8
2 8 9
2 9 10
2 10 11
2 11 12
2 12 13
2 13 14
2 14 15
2 15 16
2 16 17
2 17 18
2 18 19
2 19 20
2 20 21
2 21 22
2 22 23
2 23 24
2 24 25
2 25 26
2 26 27
2 27 28
2 28 29
2 29 30
2 30 31
2 31 32
2 32 33
2 33 34
2 34 35
2 35 36
2 36 37
2 37 38
2 38 39
2 39 40
2 40 41
2 41 42
2 42 43
2 43 44
2 44 45
2 45 46
2 46 47
2 47 48
2 48 49
2 49 50

CELL_TYPES 50
4
4
4
4
4
4
4
4
4
4
4
4
4
4
4
4
4
4
4
4
4
4
4
4
4
4
4
4
4
4
4
4
4
4
4
4
4
4
4
4
4
4
4
4
4
4
4
4
4
4

POINT_DATA 51

SCALARS zone float
LOOKUP_TABLE default
1.0
1.0
1.0
1.0
1.0
1.0
1.0
1.0
1.0
1.0
1.0
1.0
1.0
1.0
1.0
1.0
1.0
1.0
1.0
1.0
1.0
1.0
1.0
1.0
1.0
1.0
1.0
1.0
1.0
1.0
1.0
1.0
1.0
1.0
1.0
1.0
1.0
1.0
1.0
1.0
1.0
1.0
1.0
1.0
1.0
1.0
1.0
1.0
1.0
1.0
1.0

VECTORS normals float
-0.00016346495249308646 -0.0002192965621361509 -0.0020570785272866488
-0.00028733181534335017 -0.0005139175918884575 -0.004069431684911251
-0.0002512586652301252 -0.0005188523791730404 -0.003992728888988495
-0.0002959130215458572 -0.0004576653300318867 -0.003921811003237963
-0.0003617173351813108 -0.0004906134563498199 -0.0038426574319601063
-0.000335126620484516 -0.0004058224149048328 -0.0037738047540187836
-0.00016585958655923605 -0.00026812637224793434 -0.0037095807492733
3.856507100863382e-5 -0.0003155471640639007 -0.0036291610449552536
0.00017817027401179075 -0.0003152664576191455 -0.003552914597094059
0.0002414538903394714 -0.00022087039542384446 -0.0034849022049456835
0.00023929805320221928 -0.00024710033903829753 -0.0034063365310430522
0.00020282164041418582 -0.0002856212668120861 -0.0033266954123973846
0.0001460601488361135 -0.0002456306538078934 -0.0032539232634007926
8.396180783165619e-5 -0.00018763959815260023 -0.0031827257480472326
4.104220715817064e-5 -0.00016726322064641863 -0.003108237637206912
1.9746014004340395e-5 -0.000189671540283598 -0.0030300060752779245
1.6199513993342407e-5 -0.000232595280976966 -0.002949979854747653
2.2040156181901693e-5 -0.0002657059521880001 -0.0028708120808005333
2.6869760404224508e-5 -0.0002687191590666771 -0.002794277621433139
3.6020985135110095e-5 -0.0002449254388920963 -0.002720088232308626
3.733187259058468e-5 -0.00020851871522609144 -0.002647002460435033
3.555733201210387e-5 -0.000178159520146437 -0.002573387697339058
4.305047696107067e-5 -0.0001647821336518973 -0.0024982872419059277
4.652824645745568e-5 -0.00016572697495575994 -0.0024219334591180086
4.336517667979933e-5 -0.00017652330279815942 -0.0023447179701179266
4.2152376408921555e-5 -0.00019358719873707741 -0.0022669541649520397
4.205681398161687e-5 -0.0002116067917086184 -0.002189106773585081
3.8072852476034313e-5 -0.00022505408560391515 -0.00211165938526392
3.158946492476389e-5 -0.00023017468629404902 -0.002034940291196108
2.760080860753078e-5 -0.00022524059750139713 -0.001959101064130664
2.850641067198012e-5 -0.00021071995433885607 -0.0018841006094589832
3.2207175536314026e-5 -0.00018901821749750525 -0.0018097283318638802
3.3850083127617836e-5 -0.0001636481611058116 -0.0017356770113110544
3.2291711249854416e-5 -0.00013898707402404398 -0.0016615636413916945
3.161442145938054e-5 -0.00011966997408308087 -0.001586982631124556
3.356763409101404e-5 -0.0001091511076083407 -0.0015116319991648197
3.538468081387691e-5 -0.00010887320968322455 -0.0014353854348883033
3.4792101359926164e-5 -0.00011719104077201337 -0.001358386711217463
3.270775778219104e-5 -0.00012876161781605333 -0.0012811034685000777
3.0274881282821298e-5 -0.00013619310630019754 -0.001204182393848896
2.6943627744913098e-5 -0.00013257411774247885 -0.0011282280320301652
2.1934773030807264e-5 -0.00011309773981338367 -0.0010536611080169678
1.506981334387092e-5 -7.401588663924485e-5 -0.0009808093309402466
6.568267963302787e-6 -1.103288923332002e-5 -0.0009100487222895026
-3.061904180867714e-6 7.825090870028362e-5 -0.0008415891206823289
-1.3021096492593642e-5 0.00019055527809541672 -0.0007751435623504221
-2.2314161469694227e-5 0.0003160035121254623 -0.0007098478963598609
-2.9934990379842926e-5 0.00043961772462353116 -0.0006443918100558221
-3.506556458887644e-5 0.0005440715467557311 -0.0005772594013251364
-3.721884422702715e-5 0.0006128076347522438 -0.0005070020561106503
-1.8757042198558338e-5 0.00031816092086955905 -0.00023546192096546292

CELL_DATA 50

VECTORS liftinglineloading               float
0.05831737443804741 0.0731692835688591 -2.710096737816711e-16
0.003559370990842581 0.022742658853530884 -8.423589797466817e-17
0.04746353626251221 0.06330705434083939 -2.344812455824314e-16
0.1503615528345108 0.12465117871761322 -4.616920368016647e-16
-0.1417601853609085 0.2440377026796341 -9.038844222454697e-16
-0.8141958117485046 0.4491760730743408 -1.6636907636244694e-15
-2.033557891845703 0.8284831047058104 -3.068595385929095e-15
-3.1417999267578125 1.1330807209014893 -4.196786096947883e-15
-4.188109874725342 1.4074286222457886 -5.212935524868609e-15
-5.512085914611816 1.7080984115600588 -6.326577597985358e-15
-6.77295732498169 1.9589478969573977 -7.25569269650981e-15
-8.100449562072754 2.2123939990997314 -8.194423736567966e-15
-9.046529769897461 2.383012056350708 -8.826371301591876e-15
-9.630680084228516 2.443004846572876 -9.048576842776886e-15
-10.065996170043945 2.4436488151550293 -9.050962934589301e-15
-10.948509216308594 2.5083580017089844 -9.290636836245536e-15
-11.312467575073242 2.4591007232666016 -9.108194409736432e-15
-11.980361938476562 2.499116897583008 -9.256409081879937e-15
-12.323514938354492 2.458077907562256 -9.104405631363364e-15
-12.850881576538086 2.470297336578369 -9.149664295801056e-15
-13.082303047180176 2.441652536392212 -9.043568336959771e-15
-13.500696182250977 2.4253647327423096 -8.983240956390425e-15
-13.3812894821167 2.2894606590270996 -8.479868757594981e-15
-13.54281997680664 2.2417807579040527 -8.303269164356038e-15
-13.619810104370117 2.1529440879821777 -7.974229898632685e-15
-13.844283103942871 2.0982327461242676 -7.771584889298619e-15
-14.221684455871582 2.07201886177063 -7.674492890686647e-15
-14.505406379699707 2.011181116104126 -7.449157562761533e-15
-14.63954162597656 1.9721882343292234 -7.304732516024044e-15
-14.853575706481934 1.898263931274414 -7.03092657472525e-15
-15.482298851013185 1.8546956777572632 -6.869555363328518e-15
-15.857542037963869 1.7751821279525757 -6.575047513282355e-15
-16.392091751098633 1.685755968093872 -6.243824173104507e-15
-16.53154182434082 1.5815390348434448 -5.85781813003004e-15
-16.34832000732422 1.4957215785980225 -5.5399609697598644e-15
-16.30686378479004 1.4325294494628906 -5.305905861159241e-15
-16.28607177734375 1.3710246086120605 -5.078099738126986e-15
-16.030853271484375 1.338742733001709 -4.9585317202596214e-15
-15.77918815612793 1.3295717239379883 -4.924563581492356e-15
-15.497131347656248 1.3150721788406372 -4.870858728021118e-15
-15.27799701690674 1.3060754537582397 -4.837536451876134e-15
-14.261270523071289 1.257213830947876 -4.656558968849306e-15
-12.8594388961792 1.4057679176330566 -5.206784371605648e-15
-10.949503898620605 1.3752570152282715 -5.093775776881821e-15
-9.201321601867676 1.5694949626922607 -5.813208292829944e-15
-7.370412349700928 1.6522914171218874 -6.11987614786689e-15
-5.726203918457031 1.5975935459136963 -5.9172819605096596e-15
-4.1317315101623535 1.461663007736206 -5.4138123529252815e-15
-2.7475955486297607 1.3069608211517334 -4.840815739931429e-15
-1.259203314781189 1.1542870998382568 -4.275331885663248e-15