# vtk DataFile Version 4.0
 
ASCII
DATASET UNSTRUCTURED_GRID
POINTS 51 float
0.002990470267832279 0.007279645651578903 0.0015450471546500921
0.002663540421053767 0.010260156355798244 0.004414752125740051
0.0024158067535609007 0.013298572972416878 0.007119098212569952
0.0021610232070088387 0.016188038513064384 0.009864944033324718
0.0018239807104691865 0.01904154010117054 0.01253929827362299
0.0014375883620232344 0.02187972702085972 0.015121515840291977
0.0011537274112924933 0.024514805525541306 0.017799386754631996
0.0011058691889047623 0.027059465646743774 0.020460227504372597
0.0012308575678616762 0.0296638123691082 0.022953925654292107
0.0014622097369283438 0.03211002051830292 0.02549830824136734
0.0017137653194367886 0.034482307732105255 0.02800915949046612
0.0019408058142289517 0.03686770051717758 0.03039945289492607
0.0021194086875766516 0.039196621626615524 0.032738763839006424
0.0022329261992126703 0.041427191346883774 0.03506897762417793
0.0022873322013765574 0.04357573762536049 0.03737375885248184
0.002315010642632842 0.045679327100515366 0.039616044610738754
0.0023268242366611958 0.04776163026690483 0.041772160679101944
0.002347409725189209 0.04982810467481613 0.04383665695786476
0.002370904665440321 0.05185936018824577 0.045828916132450104
0.002401149133220315 0.053832061588764184 0.047772277146577835
0.0024429464247077703 0.055731486529111855 0.04968146234750748
0.0024758127983659506 0.0575544498860836 0.051559656858444214
0.0025140612851828337 0.05931272730231285 0.0533950850367546
0.0025619138032197952 0.06101864948868751 0.05517541244626045
0.0026071176398545504 0.0626802146434784 0.05689264461398125
0.0026486441493034363 0.06430340558290482 0.058540794998407364
0.0026914223562926054 0.06589114665985107 0.0601169504225254
0.0027327577117830515 0.06744187325239182 0.06162266433238984
0.0027675682213157415 0.06895064562559128 0.0630628764629364
0.0027959367725998163 0.0704105868935585 0.06444446742534637
0.002822769805788994 0.07181430608034134 0.0657748281955719
0.002852949546650052 0.07315558195114136 0.06706018000841141
0.0028871840331703424 0.0744304433465004 0.06830449402332306
0.0029206497129052877 0.07563764601945877 0.06950901448726654
0.0029517675284296274 0.07677944749593735 0.07067148387432098
0.0029838785994797945 0.07786118239164352 0.07178656756877899
0.003018902847543359 0.07888999581336975 0.07284711301326752
0.0030546479392796755 0.07987327873706818 0.07384573668241501
0.0030884870793670416 0.08081585168838501 0.07477762550115585
0.0031200633384287357 0.08171750605106354 0.07564297318458557
0.0031490367837250233 0.0825725719332695 0.07644745707511902
0.003173950593918562 0.08337104320526123 0.07720108330249786
0.003192906267940998 0.08410041034221649 0.07791636139154434
0.003204090287908912 0.08474534749984741 0.07860861718654633
0.0032060428056865926 0.08528725057840347 0.07929645478725433
0.0031979666091501713 0.08570738881826401 0.07999860495328903
0.0031800006981939077 0.08599180728197098 0.08072901517152786
0.003153338097035885 0.08613580465316772 0.08149240165948868
0.0031201306264847517 0.08614668995141983 0.0822814404964447
0.003083207178860903 0.08604434877634048 0.08307625353336334
0.003045693039894104 0.08585960417985916 0.08384602516889572

CELLS 50 150
2 0 1
2 1 2
2 2 3
2 3 4
2 4 5
2 5 6
2 6 7
2 7 8
2 8 9
2 9 10
2 10 11
2 11 12
2 12 13
2 13 14
2 14 15
2 15 16
2 16 17
2 17 18
2 18 19
2 19 20
2 20 21
2 21 22
2 22 23
2 23 24
2 24 25
2 25 26
2 26 27
2 27 28
2 28 29
2 29 30
2 30 31
2 31 32
2 32 33
2 33 34
2 34 35
2 35 36
2 36 37
2 37 38
2 38 39
2 39 40
2 40 41
2 41 42
2 42 43
2 43 44
2 44 45
2 45 46
2 46 47
2 47 48
2 48 49
2 49 50

CELL_TYPES 50
4
4
4
4
4
4
4
4
4
4
4
4
4
4
4
4
4
4
4
4
4
4
4
4
4
4
4
4
4
4
4
4
4
4
4
4
4
4
4
4
4
4
4
4
4
4
4
4
4
4

POINT_DATA 51

SCALARS zone float
LOOKUP_TABLE default
1.0
1.0
1.0
1.0
1.0
1.0
1.0
1.0
1.0
1.0
1.0
1.0
1.0
1.0
1.0
1.0
1.0
1.0
1.0
1.0
1.0
1.0
1.0
1.0
1.0
1.0
1.0
1.0
1.0
1.0
1.0
1.0
1.0
1.0
1.0
1.0
1.0
1.0
1.0
1.0
1.0
1.0
1.0
1.0
1.0
1.0
1.0
1.0
1.0
1.0
1.0

VECTORS normals float
-0.00016346495249308646 0.0014902554685249925 0.0014348524855449796
-0.00028733181534335017 0.003009463893249631 0.002787025412544608
-0.0002512586652301252 0.0029639406129717827 0.00272509572096169
-0.0002959130215458572 0.002871483564376831 0.002710100030526519
-0.0003617173351813108 0.002845844253897667 0.002628286136314273
-0.000335126620484516 0.0027366329450160265 0.002630044473335147
-0.00016585958655923605 0.002589869312942028 0.0026693553663790226
3.856507100863382e-5 0.00257450295612216 0.0025772687513381243
0.00017817027401179075 0.002525277668610215 0.0025190410669893026
0.0002414538903394714 0.002409248612821102 0.0025276171509176493
0.00023929805320221928 0.002378840697929263 0.002450572093948722
0.00020282164041418582 0.0023571571800857782 0.0023648026399314404
0.0001460601488361135 0.002279745414853096 0.002334761433303356
8.396180783165619e-5 0.0021895570680499077 0.0023174970410764217
4.104220715817064e-5 0.0021260676439851522 0.0022735334932804108
1.9746014004340395e-5 0.0020929472520947456 0.002199200913310051
1.6199513993342407e-5 0.002074388787150383 0.002110306406393647
2.2040156181901693e-5 0.002048864960670471 0.0020283772610127926
2.6869760404224508e-5 0.0020019777584820986 0.001967811491340399
3.6020985135110095e-5 0.001936062821187079 0.0019262734567746522
3.733187259058468e-5 0.0018611950799822807 0.0018936883425340059
3.555733201210387e-5 0.0017906198045238853 0.0018568106461316345
4.305047696107067e-5 0.0017320985207334163 0.0018078790744766593
4.652824645745568e-5 0.0016837430885061622 0.0017487815348431468
4.336517667979933e-5 0.0016423803754150867 0.0016826912760734556
4.2152376408921555e-5 0.0016054664738476276 0.0016121522057801485
4.205681398161687e-5 0.001569230924360454 0.0015409348998218775
3.8072852476034313e-5 0.0015297499485313892 0.001472962903790176
3.158946492476389e-5 0.001484358566813171 0.0014109013136476278
2.760080860753078e-5 0.0014318302273750305 0.0013559766812250018
2.850641067198012e-5 0.0013724974123761058 0.001307856640778482
3.2207175536314026e-5 0.0013080672360956669 0.0012648337287828326
3.3850083127617836e-5 0.0012410334311425686 0.0012244146782904863
3.2291711249854416e-5 0.0011745027732104063 0.0011834923643618822
3.161442145938054e-5 0.001111765275709331 0.001138776890002191
3.356763409101404e-5 0.0010552728781476617 0.001087816315703094
3.538468081387691e-5 0.0010060496861115098 0.0010295866522938013
3.4792101359926164e-5 0.0009629277046769856 0.000965255661867559
3.270775778219104e-5 0.0009221145883202553 0.0008986158645711839
3.0274881282821298e-5 0.0008783634984865785 0.0008349139825440943
2.6943627744913098e-5 0.0008267686935141684 0.000779055873863399
2.1934773030807264e-5 0.00076391821494326 0.0007344533805735409
1.506981334387092e-5 0.0006871515652164817 0.0007037670584395528
6.568267963302787e-6 0.0005934197106398642 0.0006900459993630648
-3.061904180867714e-6 0.0004810193786397576 0.0006949933595024049
-1.3021096492593642e-5 0.0003522788465488702 0.0007162809488363564
-2.2314161469694227e-5 0.00021420870325528085 0.0007468981784768403
-2.9934990379842926e-5 7.744034519419074e-5 0.0007762135937809944
-3.506556458887644e-5 -4.5727789256488904e-5 0.0007919287891127169
-3.721884422702715e-5 -0.00014354323502629995 0.0007822912884876132
-1.8757042198558338e-5 -9.237340418621898e-5 0.000384884187951684

CELL_DATA 50

VECTORS liftinglineloading               float
0.1090116873383522 -0.08413460850715637 0.07059731334447861
0.15274696052074432 -0.134151890873909 0.11256680637598038
-0.07222741097211838 -0.03857279196381569 0.03236641734838486
0.13335224986076355 -0.06540076434612274 0.05487775802612304
0.25671741366386414 -0.10654552280902863 0.08940230309963226
-0.33177921175956726 -0.2457388788461685 0.20619940757751465
-1.4418885707855225 -0.5339503288269043 0.4480375051498413
-2.616518497467041 -0.7853699922561646 0.6590036749839783
-3.8438496589660645 -1.0394808053970337 0.8722279071807862
-5.221657752990723 -1.2828433513641357 1.0764334201812744
-6.569817543029784 -1.4916143417358398 1.2516130208969116
-7.964756965637207 -1.6936049461364748 1.4211033582687378
-8.931682586669922 -1.8266000747680666 1.532699465751648
-9.402109146118164 -1.8594179153442383 1.560236930847168
-9.81678581237793 -1.855750918388367 1.5571599006652832
-10.693441390991211 -1.906009316444397 1.5993317365646362
-11.033172607421875 -1.8675628900527954 1.5670713186264038
-11.68494701385498 -1.8972645998001099 1.591994047164917
-12.032477378845215 -1.8692731857299807 1.5685064792633057
-12.589536666870117 -1.8808733224868777 1.578240156173706
-12.88121509552002 -1.861399292945862 1.5618995428085327
-13.38992977142334 -1.8519868850708008 1.5540014505386353
-13.283574104309082 -1.7485053539276123 1.4671701192855835
-13.514775276184082 -1.7140201330184937 1.438233733177185
-13.64277172088623 -1.6470923423767092 1.3820745944976807
-13.939408302307127 -1.6060020923614502 1.3475958108901978
-14.398288726806642 -1.5871466398239136 1.3317742347717285
-14.751840591430664 -1.5411856174468994 1.2932082414627075
-14.955512046813965 -1.511297583580017 1.2681292295455933
-15.16413688659668 -1.4530231952667236 1.2192312479019165
-15.726382255554197 -1.4164400100708008 1.1885343790054321
-16.03700065612793 -1.3548039197921753 1.1368155479431152
-16.517244338989258 -1.28801429271698 1.0807722806930542
-16.583492279052734 -1.2090134620666504 1.0144827365875244
-16.368274688720703 -1.1445200443267822 0.9603663086891174
-16.271263122558594 -1.0977463722229004 0.9211185574531555
-16.17159652709961 -1.0525715351104736 0.8832123875617982
-15.863072395324709 -1.029212474822998 0.8636117577552794
-15.565232276916504 -1.0224467515945435 0.8579346537590027
-15.24636459350586 -1.0113955736160278 0.8486616611480713
-15.02081871032715 -1.0046067237854004 0.8429651260375977
-14.002451896667482 -0.9666553735733032 0.8111202120780945
-12.630976676940918 -1.0761717557907104 0.9030153155326843
-10.742115020751953 -1.0496407747268677 0.8807531595230101
-9.018489837646484 -1.19276762008667 1.0008509159088135
-7.190397739410401 -1.2549291849136353 1.0530105829238892
-5.5750603675842285 -1.211742877960205 1.0167731046676636
-4.008459091186523 -1.1071205139160156 0.9289844036102295
-2.6555724143981934 -0.9889193773269653 0.8298019170761108
-1.2118571996688843 -0.872779369354248 0.7323488593101501