# vtk DataFile Version 4.0
 
ASCII
DATASET UNSTRUCTURED_GRID
POINTS 51 float
0.002990470267832279 0.00039170996751636267 0.0074314852245152005
0.002663540421053767 -0.0016087990952655673 0.011053171940147877
0.0024158067535609007 -0.0034345968160778284 0.014687993563711641
0.0021610232070088387 -0.005339031573385 0.018189679831266403
0.0018239807104691865 -0.007183718495070934 0.02163812518119812
0.0014375883620232344 -0.008943373337388039 0.02504792809486389
0.0011537274112924933 -0.010847989469766617 0.028286304324865345
0.0011058691889047623 -0.012759556993842125 0.03143293038010597
0.0012308575678616762 -0.014494229108095167 0.03459395468235016
0.0014622097369283438 -0.01631879061460495 0.0376153439283371
0.0017137653194367886 -0.018130091950297356 0.0405566580593586
0.0019408058142289517 -0.01982155442237854 0.043479423969984055
0.0021194086875766516 -0.021478386595845222 0.04633444547653198
0.0022329261992126703 -0.023151883855462074 0.049092113971710205
0.0022873322013765574 -0.024822048842906952 0.05176397040486336
0.002315010642632842 -0.02644347958266735 0.054376229643821716
0.0023268242366611958 -0.027987189590930935 0.056945625692605965
0.002347409725189209 -0.02944649569690227 0.059476014226675034
0.002370904665440321 -0.03084514290094376 0.06195369362831115
0.002401149133220315 -0.03221171349287033 0.06436215341091156
0.0024429464247077703 -0.033564236015081406 0.06669098883867264
0.0024758127983659506 -0.03490661457180977 0.06893794983625412
0.0025140612851828337 -0.036224424839019775 0.07111135870218277
0.0025619138032197952 -0.03750256821513176 0.07321993261575699
0.0026071176398545504 -0.03873124346137047 0.07526933401823044
0.0026486441493034363 -0.03990311920642853 0.07726379483938217
0.0026914223562926054 -0.04101463034749031 0.07920537143945694
0.0027327577117830515 -0.04206768423318863 0.0810929611325264
0.0027675682213157415 -0.04306831955909729 0.08292308449745178
0.0027959367725998163 -0.04402497410774231 0.08469086140394211
0.002822769805788994 -0.04494669660925865 0.08639106899499893
0.002852949546650052 -0.04584110155701637 0.08801931887865067
0.0028871840331703424 -0.04671306163072586 0.08957278728485107
0.0029206497129052877 -0.04756408557295799 0.09105061739683151
0.0029517675284296274 -0.0483914278447628 0.09245437383651733
0.0029838785994797945 -0.04918853938579559 0.09378785640001297
0.003018902847543359 -0.049946676939725876 0.09505610167980194
0.0030546479392796755 -0.05065678060054779 0.09626434743404388
0.0030884870793670416 -0.05131296068429947 0.097415991127491
0.0031200633384287357 -0.05191545188426972 0.09851089119911194
0.0031490367837250233 -0.05247121676802635 0.09954503923654556
0.003173950593918562 -0.052992504090070724 0.10051135718822479
0.003192906267940998 -0.053494635969400406 0.10140100121498108
0.003204090287908912 -0.05399638041853905 0.10220313072204591
0.0032060428056865926 -0.05452052876353263 0.10290458798408507
0.0031979666091501713 -0.05509001016616821 0.1034921407699585
0.0031800006981939077 -0.05572192370891571 0.10395591706037523
0.003153338097035885 -0.056422024965286255 0.10429258644580841
0.0031201306264847517 -0.05718136578798294 0.10450731962919235
0.003083207178860903 -0.057975586503744125 0.10461417585611345
0.003045693039894104 -0.0587669387459755 0.10463495552539827

CELLS 50 150
2 0 1
2 1 2
2 2 3
2 3 4
2 4 5
2 5 6
2 6 7
2 7 8
2 8 9
2 9 10
2 10 11
2 11 12
2 12 13
2 13 14
2 14 15
2 15 16
2 16 17
2 17 18
2 18 19
2 19 20
2 20 21
2 21 22
2 22 23
2 23 24
2 24 25
2 25 26
2 26 27
2 27 28
2 28 29
2 29 30
2 30 31
2 31 32
2 32 33
2 33 34
2 34 35
2 35 36
2 36 37
2 37 38
2 38 39
2 39 40
2 40 41
2 41 42
2 42 43
2 43 44
2 44 45
2 45 46
2 46 47
2 47 48
2 48 49
2 49 50

CELL_TYPES 50
4
4
4
4
4
4
4
4
4
4
4
4
4
4
4
4
4
4
4
4
4
4
4
4
4
4
4
4
4
4
4
4
4
4
4
4
4
4
4
4
4
4
4
4
4
4
4
4
4
4

POINT_DATA 51

SCALARS zone float
LOOKUP_TABLE default
1.0
1.0
1.0
1.0
1.0
1.0
1.0
1.0
1.0
1.0
1.0
1.0
1.0
1.0
1.0
1.0
1.0
1.0
1.0
1.0
1.0
1.0
1.0
1.0
1.0
1.0
1.0
1.0
1.0
1.0
1.0
1.0
1.0
1.0
1.0
1.0
1.0
1.0
1.0
1.0
1.0
1.0
1.0
1.0
1.0
1.0
1.0
1.0
1.0
1.0
1.0

VECTORS normals float
-0.00016346495249308646 -0.001000254531390965 0.0018108433578163385
-0.00028733181534335017 -0.0019131533335894346 0.0036282541695982213
-0.0002512586652301252 -0.0018651161808520558 0.003568253479897976
-0.0002959130215458572 -0.0018745609559118746 0.003475065575912595
-0.0003617173351813108 -0.0018021707655861974 0.0034291250631213184
-0.000335126620484516 -0.0018321352545171974 0.0033240900374948983
-0.00016585958655923605 -0.0019080918282270432 0.0031925016082823277
3.856507100863382e-5 -0.0018231201684102416 0.003153824945911765
0.00017817027401179075 -0.0017796169267967345 0.0030912067741155624
0.0002414538903394714 -0.001817931421101093 0.0029813507571816444
0.00023929805320221928 -0.0017513815546408296 0.002932038391008973
0.00020282164041418582 -0.0016741468571126463 0.002888894872739911
0.0001460601488361135 -0.001665164832957089 0.0028063456993550062
8.396180783165619e-5 -0.0016718311235308647 0.0027147619985044003
4.104220715817064e-5 -0.001645797863602638 0.0026420573703944683
1.9746014004340395e-5 -0.0015825702575966716 0.0025908269453793764
1.6199513993342407e-5 -0.0015015080571174622 0.0025498932227492332
2.2040156181901693e-5 -0.0014289766550064087 0.002504034200683236
2.6869760404224508e-5 -0.0013826099457219243 0.002443069126456976
3.6020985135110095e-5 -0.0013595473719760776 0.0023686494678258896
3.733187259058468e-5 -0.0013474497245624661 0.002287898911163211
3.555733201210387e-5 -0.0013300947612151504 0.0022101840004324913
4.305047696107067e-5 -0.0012979770544916391 0.0021409920882433653
4.652824645745568e-5 -0.0012534083798527718 0.0020789888221770525
4.336517667979933e-5 -0.001200275612063706 0.002021930180490017
4.2152376408921555e-5 -0.0011416941415518522 0.001968017313629389
4.205681398161687e-5 -0.0010822819313034415 0.0019145839614793658
3.8072852476034313e-5 -0.0010268444893881679 0.0018588558305054903
3.158946492476389e-5 -0.000978645752184093 0.0017989483894780278
2.760080860753078e-5 -0.0009391879430040718 0.0017339943442493677
2.850641067198012e-5 -0.0009080640156753361 0.0016642288537696006
3.2207175536314026e-5 -0.0008831828599795699 0.0015908590285107491
3.3850083127617836e-5 -0.0008614906691946088 0.0015156480949372053
3.2291711249854416e-5 -0.0008391821756958961 0.0014407929265871644
3.161442145938054e-5 -0.0008122279541566968 0.001368619967252016
3.356763409101404e-5 -0.000777625129558146 0.0013008629903197289
3.538468081387691e-5 -0.0007341195014305413 0.0012382459826767445
3.4792101359926164e-5 -0.0006831413484178483 0.0011799433268606663
3.270775778219104e-5 -0.0006293354672379792 0.0011232731631025672
3.0274881282821298e-5 -0.0005791278090327978 0.0010645255679264665
2.6943627744913098e-5 -0.0005385266849771142 0.001000231713987887
2.1934773030807264e-5 -0.000511710939463228 0.0009279788355343044
1.506981334387092e-5 -0.0005019388627260923 0.0008458857773803174
6.568267963302787e-6 -0.0005129448836669326 0.0007517964695580304
-3.061904180867714e-6 -0.0005468151066452265 0.0006445065955631435
-1.3021096492593642e-5 -0.0006006978219375014 0.0005256623844616115
-2.2314161469694227e-5 -0.0006660069338977337 0.00040022117900662124
-2.9934990379842926e-5 -0.0007297217380255461 0.000275700498605147
-3.506556458887644e-5 -0.0007767796632833779 0.00016079659690149128
-3.721884422702715e-5 -0.0007927870610728861 6.38197670923546e-5
-1.8757042198558338e-5 -0.00039567757630720735 1.0389500857854728e-5

CELL_DATA 50

VECTORS liftinglineloading               float
0.0517938882112503 -0.056289311498403556 -0.03941420093178749
-0.01745516248047352 -0.00560991745442152 -0.003928106743842363
0.06570891290903091 -0.06137342378497123 -0.04297413304448128
0.07564270496368408 -0.12265031784772874 -0.08588067442178726
-0.24246165156364444 -0.22267434000968933 -0.15591825544834137
-1.0016781091690063 -0.41184237599372864 -0.2883751392364502
-2.2877631187438965 -0.725908100605011 -0.5082862973213196
-3.393869161605835 -0.973097264766693 -0.6813700199127197
-4.383490562438965 -1.1841826438903809 -0.8291736245155334
-5.677492618560791 -1.4247891902923584 -0.9976481795310974
-6.876440525054932 -1.6200342178344727 -1.1343601942062378
-8.136272430419922 -1.818560004234314 -1.2733694314956665
-9.016900062561035 -1.9501411914825442 -1.3655035495758057
-9.545104026794434 -1.9927442073822021 -1.3953346014022827
-9.926044464111328 -1.986843466758728 -1.3912028074264526
-10.769721031188965 -2.036924362182617 -1.426269769668579
-11.092220306396484 -1.9943561553955078 -1.3964632749557495
-11.715927124023438 -2.0244641304016113 -1.4175450801849365
-12.014616012573242 -1.9914956092834473 -1.3944602012634277
-12.491607666015625 -2.0005877017974854 -1.4008265733718872
-12.669917106628418 -1.9756925106048584 -1.3833948373794556
-13.030911445617676 -1.960183262825012 -1.3725351095199585
-12.896267890930176 -1.8504585027694702 -1.295704960823059
-13.020000457763674 -1.8107731342315676 -1.2679170370101929
-13.080699920654299 -1.7422456741333006 -1.2199335098266602
-13.289481163024902 -1.7006238698959353 -1.1907895803451538
-13.630767822265625 -1.6797388792037962 -1.1761658191680908
-13.87216854095459 -1.6312519311904907 -1.1422148942947388
-14.019638061523438 -1.6021878719329834 -1.1218639612197876
-14.241880416870117 -1.5459513664245605 -1.082486867904663
-14.971292495727539 -1.5178371667861938 -1.0628010034561157
-15.441303253173828 -1.45635187625885 -1.019748568534851
-16.04182243347168 -1.3819141387939453 -0.9676266908645631
-17.023683547973633 -1.2847874164581299 -0.8996178507804871
-16.8718204498291 -1.2125605344772339 -0.8490440249443053
-16.832948684692383 -1.1605855226516724 -0.8126506805419921
-16.814346313476562 -1.1116479635238647 -0.7783843278884888
-16.535764694213867 -1.0858027935028076 -0.760287344455719
-16.287437438964844 -1.080358624458313 -0.7564752697944641
-16.01150131225586 -1.0697846412658691 -0.7490713000297546
-15.759332656860352 -1.0631773471832275 -0.7444447875022888
-14.713583946228027 -1.0248686075210571 -0.7176207900047302
-13.244744300842285 -1.1542091369628906 -0.8081859350204468
-11.291606903076172 -1.1342829465866089 -0.794233500957489
-9.4975004196167 -1.3014311790466309 -0.9112719297409058
-7.64441156387329 -1.3700655698776245 -0.9593302011489868
-5.950222015380859 -1.3261836767196655 -0.9286037683486938
-4.306334495544434 -1.2143515348434448 -0.850298047065735
-2.870103359222412 -1.0859591960906982 -0.7603968381881714
-1.3181533813476562 -0.958692967891693 -0.671284019947052