# vtk DataFile Version 4.0
 
ASCII
DATASET UNSTRUCTURED_GRID
POINTS 51 float
0.002990470267832279 -0.002785671502351761 0.0069007566198706636
0.002663540421053767 -0.006129339337348938 0.009337668307125568
0.0024158067535609007 -0.009320216253399849 0.011860319413244724
0.0021610232070088387 -0.01252609584480524 0.014229075051844118
0.0018239807104691865 -0.01565532572567463 0.016574829816818237
0.0014375883620232344 -0.018691161647439003 0.0189215000718832
0.0011537274112924933 -0.021785926073789597 0.021051540970802307
0.0011058691889047623 -0.024848217144608498 0.023095490410923958
0.0012308575678616762 -0.02775627002120018 0.025227244943380356
0.0014622097369283438 -0.03068677894771099 0.027194460853934288
0.0017137653194367886 -0.03357142582535744 0.029094705358147618
0.0019408058142289517 -0.03633962571620941 0.031028788536787033
0.0021194086875766516 -0.039047811180353165 0.032916110008955
0.0022329261992126703 -0.04172995686531067 0.03470815718173981
0.0022873322013765574 -0.044372815638780594 0.03642383962869644
0.002315010642632842 -0.046946316957473755 0.038106102496385574
0.0023268242366611958 -0.049431268125772476 0.039782363921403885
0.002347409725189209 -0.051823239773511894 0.04145894944667816
0.002370904665440321 -0.054137952625751495 0.04311339557170868
0.002401149133220315 -0.05639434978365899 0.0447186604142189
0.0024429464247077703 -0.05860435962677002 0.04625770449638367
0.0024758127983659506 -0.06077057495713234 0.0477268286049366
0.0025140612851828337 -0.06288343667984009 0.04913967475295067
0.0025619138032197952 -0.06493294984102249 0.050510529428720474
0.0026071176398545504 -0.06691262125968933 0.05184865742921829
0.0026486441493034363 -0.06881760060787201 0.05316099151968955
0.0026914223562926054 -0.0706455186009407 0.05445091426372528
0.0027327577117830515 -0.0723976343870163 0.0557166151702404
0.0027675682213157415 -0.07407796382904053 0.056952375918626785
0.0027959367725998163 -0.0756920799612999 0.05815022811293602
0.002822769805788994 -0.07724598795175552 0.05930160731077194
0.002852949546650052 -0.07874471694231033 0.06039930507540703
0.0028871840331703424 -0.08019150793552399 0.061438724398612976
0.0029206497129052877 -0.08158735185861588 0.062418431043624885
0.0029517675284296274 -0.08293043822050095 0.06334102153778076
0.0029838785994797945 -0.0842164158821106 0.06421268731355667
0.003018902847543359 -0.08543950319290161 0.06504170596599579
0.0030546479392796755 -0.08659370243549347 0.06583664566278458
0.0030884870793670416 -0.08767510950565338 0.06660307198762894
0.0031200633384287357 -0.08868388086557388 0.06734076887369156
0.0031490367837250233 -0.08962462097406387 0.06804315000772476
0.003173950593918562 -0.090505450963974 0.06869862228631973
0.003192906267940998 -0.09133651852607727 0.06929270178079605
0.003204090287908912 -0.09213025122880936 0.06980763375759125
0.0032060428056865926 -0.09290173649787903 0.07022186368703842
0.0031979666091501713 -0.09366617351770401 0.07051368802785873
0.0031800006981939077 -0.09443487972021103 0.07066695392131805
0.003153338097035885 -0.09521166980266571 0.07067620009183884
0.0031201306264847517 -0.0959906205534935 0.07054990530014038
0.003083207178860903 -0.09675558656454086 0.07031109929084778
0.003045693039894104 -0.09748157858848572 0.06999549269676208

CELLS 50 150
2 0 1
2 1 2
2 2 3
2 3 4
2 4 5
2 5 6
2 6 7
2 7 8
2 8 9
2 9 10
2 10 11
2 11 12
2 12 13
2 13 14
2 14 15
2 15 16
2 16 17
2 17 18
2 18 19
2 19 20
2 20 21
2 21 22
2 22 23
2 23 24
2 24 25
2 25 26
2 26 27
2 27 28
2 28 29
2 29 30
2 30 31
2 31 32
2 32 33
2 33 34
2 34 35
2 35 36
2 36 37
2 37 38
2 38 39
2 39 40
2 40 41
2 41 42
2 42 43
2 43 44
2 44 45
2 45 46
2 46 47
2 47 48
2 48 49
2 49 50

CELL_TYPES 50
4
4
4
4
4
4
4
4
4
4
4
4
4
4
4
4
4
4
4
4
4
4
4
4
4
4
4
4
4
4
4
4
4
4
4
4
4
4
4
4
4
4
4
4
4
4
4
4
4
4

POINT_DATA 51

SCALARS zone float
LOOKUP_TABLE default
1.0
1.0
1.0
1.0
1.0
1.0
1.0
1.0
1.0
1.0
1.0
1.0
1.0
1.0
1.0
1.0
1.0
1.0
1.0
1.0
1.0
1.0
1.0
1.0
1.0
1.0
1.0
1.0
1.0
1.0
1.0
1.0
1.0
1.0
1.0
1.0
1.0
1.0
1.0
1.0
1.0
1.0
1.0
1.0
1.0
1.0
1.0
1.0
1.0
1.0
1.0

VECTORS normals float
-0.00016346495249308646 -0.0016718339174985886 0.0012184556107968092
-0.00028733181534335017 -0.003267272142693401 0.002479781396687031
-0.0002512586652301252 -0.0031983782537281513 0.002445703838020563
-0.0002959130215458572 -0.0031675552017986774 0.0023572552017867565
-0.0003617173351813108 -0.0030825322028249502 0.002346212510019541
-0.000335126620484516 -0.0030652997083961964 0.002238354878500104
-0.00016585958655923605 -0.003078527981415391 0.002086994703859091
3.856507100863382e-5 -0.0029851719737052917 0.0020878524519503117
0.00017817027401179075 -0.0029192811343818903 0.0020494861528277397
0.0002414538903394714 -0.0029075786005705595 0.0019337305566295981
0.00023929805320221928 -0.0028264238499104977 0.0019171633757650852
0.00020282164041418582 -0.0027381922118365765 0.0019107030238956215
0.0001460601488361135 -0.0026951648760586977 0.0018396839732304215
8.396180783165619e-5 -0.0026625015307217836 0.0017538635293021798
4.104220715817064e-5 -0.0026081812102347612 0.001698973006568849
1.9746014004340395e-5 -0.002529226476326585 0.0016792634269222617
1.6199513993342407e-5 -0.0024384597782045603 0.0016764233587309716
2.2040156181901693e-5 -0.002353343181312084 0.0016655141953378916
2.6869760404224508e-5 -0.0022855557035654783 0.001629856415092945
3.6020985135110095e-5 -0.002233202802017331 0.0015721558593213558
3.733187259058468e-5 -0.0021881121210753918 0.001504083746112883
3.555733201210387e-5 -0.002139539457857609 0.0014409845462068915
4.305047696107067e-5 -0.0020811890717595816 0.0013918491313233972
4.652824645745568e-5 -0.0020145925227552652 0.0013544905232265592
4.336517667979933e-5 -0.0019423237536102533 0.0013252326752990484
4.2152376408921555e-5 -0.00186644634231925 0.001301128533668816
4.205681398161687e-5 -0.001790018635801971 0.0012778101954609156
3.8072852476034313e-5 -0.0017162235453724861 0.0012507322244346142
3.158946492476389e-5 -0.0016472227871418 0.0012168072862550616
2.760080860753078e-5 -0.0015840110136196017 0.001174614648334682
2.850641067198012e-5 -0.0015263189561665058 0.0011245391797274351
3.2207175536314026e-5 -0.0014727616216987371 0.0010685587767511606
3.3850083127617836e-5 -0.0014213162939995527 0.0010095619363710284
3.2291711249854416e-5 -0.0013694626977667212 0.0009511481621302664
3.161442145938054e-5 -0.0013145323609933257 0.0008971286006271839
3.356763409101404e-5 -0.001254536211490631 0.0008503436692990362
3.538468081387691e-5 -0.0011886436259374022 0.0008119796402752398
3.4792101359926164e-5 -0.001117801875807345 0.000780683767516166
3.270775778219104e-5 -0.0010450873523950577 0.0007520625949837267
3.0274881282821298e-5 -0.0009747560252435505 0.0007200379041023552
2.6943627744913098e-5 -0.0009107871446758509 0.0006789265898987651
2.1934773030807264e-5 -0.0008559484267607331 0.0006247760611586273
1.506981334387092e-5 -0.0008123979205265641 0.0005545043386518955
6.568267963302787e-6 -0.0007826088694855571 0.00046457911957986653
-3.061904180867714e-6 -0.0007679630070924759 0.00035302728065289557
-1.3021096492593642e-5 -0.0007665716111660004 0.0002225460630143061
-2.2314161469694227e-5 -0.0007727480842731893 8.125687600113451e-5
-2.9934990379842926e-5 -0.0007778685539960861 -5.85242232773453e-5
-3.506556458887644e-5 -0.0007719570421613753 -0.00018255008035339415
-3.721884422702715e-5 -0.0007454805308952928 -0.00027720595244318247
-1.8757042198558338e-5 -0.0003629964776337147 -0.0001578044902998954

CELL_DATA 50

VECTORS liftinglineloading               float
0.07022109627723694 -0.04063517972826958 -0.07038220018148422
0.045133937150239944 -0.03501005470752716 -0.060639191418886185
0.007309443783015014 -0.028499722480773926 -0.04936296492815018
0.19579096138477325 -0.05138820409774781 -0.08900697529315948
-0.06104009225964547 -0.11155202239751816 -0.19321377575397491
-0.7855610251426697 -0.22028806805610654 -0.381550133228302
-2.0604138374328613 -0.4164876937866211 -0.7213778495788574
-3.2328696250915527 -0.57573002576828 -0.997193694114685
-4.37009334564209 -0.7189473509788513 -1.245253324508667
-5.825900554656982 -0.878401279449463 -1.5214356184005737
-7.179204463958741 -1.0068732500076294 -1.7439556121826174
-8.552642822265625 -1.1343650817871094 -1.964777946472168
-9.4905366897583 -1.2147386074066162 -2.1039891242980957
-10.049696922302246 -1.2415543794631958 -2.150435209274292
-10.464755058288574 -1.2411311864852905 -2.149702310562134
-11.269526481628418 -1.2664448022842407 -2.193546772003174
-11.567693710327148 -1.2365891933441162 -2.1418352127075195
-12.155941009521484 -1.2517805099487305 -2.168147563934326
-12.401717185974121 -1.225496768951416 -2.122622489929199
-12.901593208312988 -1.2300176620483398 -2.130452871322632
-13.181366920471193 -1.2163673639297485 -2.1068100929260254
-13.585824012756348 -1.2076579332351685 -2.0917248725891113
-13.435481071472166 -1.1389683485031128 -1.9727511405944826
-13.574442863464355 -1.1147006750106812 -1.9307180643081667
-13.627692222595213 -1.069488525390625 -1.852408528327942
-13.834429740905763 -1.0417574644088745 -1.80437695980072
-14.204826354980469 -1.0287182331085205 -1.781792163848877
-14.492465019226074 -0.9986079931259156 -1.7296397686004636
-14.665606498718262 -0.9795161485671998 -1.6965717077255251
-14.791037559509277 -0.9426894783973694 -1.6327860355377197
-15.43388557434082 -0.92102187871933 -1.5952566862106323
-15.824494361877443 -0.8814224600791932 -1.5266685485839844
-16.380311965942383 -0.8371842503547668 -1.4500455856323242
-16.53620719909668 -0.7849054932594299 -1.3594961166381836
-16.40351104736328 -0.7416907548904419 -1.2846461534500122
-16.371992111206055 -0.710381269454956 -1.2304164171218872
-16.373262405395508 -0.6799875497817993 -1.1777729988098145
-16.119552612304688 -0.6641348004341125 -1.150315284729004
-15.880574226379395 -0.6600351333618164 -1.1432143449783325
-15.614578247070314 -0.6531042456626892 -1.1312097311019897
-15.398848533630373 -0.6487718224525452 -1.1237057447433472
-14.390885353088379 -0.6248047947883606 -1.0821937322616577
-13.025303840637205 -0.7009293437004089 -1.2140451669692993
-11.105801582336426 -0.6877073049545288 -1.1911439895629883
-9.347540855407715 -0.7877796292304993 -1.3644744157791138
-7.517873764038087 -0.8297684788703918 -1.4372011423110962
-5.85748815536499 -0.8034137487411499 -1.391553521156311
-4.244601726531982 -0.7360703349113464 -1.2749111652374268
-2.86794376373291 -0.6613284945487976 -1.1454545259475708
-1.3246569633483887 -0.5843839645385742 -1.0121827125549316