# vtk DataFile Version 4.0
 
ASCII
DATASET UNSTRUCTURED_GRID
POINTS 51 float
0.002990470267832279 -0.006240000016987324 0.004054973367601633
0.002663540421053767 -0.01037672720849514 0.004133325070142746
0.0024158067535609007 -0.014437473379075527 0.00436954852193594
0.0021610232070088387 -0.018422240391373634 0.004471102729439735
0.0018239807104691865 -0.022331025451421738 0.004597779363393784
0.0014375883620232344 -0.026163829490542415 0.004778776317834854
0.0011537274112924933 -0.029920652508735657 0.0047485181130468845
0.0011058691889047623 -0.03360149636864662 0.004666366148740053
0.0012308575678616762 -0.03720635920763016 0.0047446065582334995
0.0014622097369283438 -0.040735241025686264 0.004675185773521662
0.0017137653194367886 -0.04418814182281494 0.00457720784470439
0.0019408058142289517 -0.04756506159901619 0.004573742393404245
0.0021194086875766516 -0.05086600035429001 0.004566395655274391
0.0022329261992126703 -0.054090958088636405 0.004495937842875719
0.0022873322013765574 -0.05723993852734566 0.00438546109944582
0.002315010642632842 -0.06031293421983719 0.004287390038371086
0.0023268242366611958 -0.06330995261669159 0.004235195927321911
0.002347409725189209 -0.06623098999261856 0.004236594773828983
0.002370904665440321 -0.0690760463476181 0.004264169838279486
0.002401149133220315 -0.07184511423110962 0.0042849136516451836
0.0024429464247077703 -0.0745382085442543 0.004278013948351145
0.0024758127983659506 -0.07715532183647156 0.004238960798829794
0.0025140612851828337 -0.07969645410776138 0.004184406250715256
0.0025619138032197952 -0.08216160535812378 0.004131791181862354
0.0026071176398545504 -0.08455078303813934 0.0040924279019236565
0.0026486441493034363 -0.08686397224664688 0.004074783064424992
0.0026914223562926054 -0.08910118043422699 0.00408297311514616
0.0027327577117830515 -0.09126240760087967 0.004114799667149782
0.0027675682213157415 -0.09334765374660492 0.0041632819920778275
0.0027959367725998163 -0.09535692632198334 0.004218683578073978
0.002822769805788994 -0.09729021042585373 0.004270554985851049
0.002852949546650052 -0.09914752095937729 0.00431009940803051
0.0028871840331703424 -0.10092884302139282 0.004331696312874556
0.0029206497129052877 -0.10263418406248094 0.004333601798862219
0.0029517675284296274 -0.10426355153322218 0.004318983294069767
0.0029838785994797945 -0.10581693798303606 0.004295401740819216
0.003018902847543359 -0.10729433596134187 0.004272960126399994
0.0030546479392796755 -0.10869576036930083 0.004262115340679884
0.0030884870793670416 -0.1100212037563324 0.004269667901098728
0.0031200633384287357 -0.11127065867185593 0.004295347724109888
0.0031490367837250233 -0.11244414001703264 0.004331114701926708
0.003173950593918562 -0.11354164034128189 0.004362823907285929
0.003192906267940998 -0.11456315964460372 0.004372783936560154
0.003204090287908912 -0.11550869792699814 0.004339326173067093
0.0032060428056865926 -0.11637825518846512 0.004236133769154549
0.0031979666091501713 -0.11717183142900467 0.004036720842123032
0.0031800006981939077 -0.11788942664861679 0.003721357323229313
0.003153338097035885 -0.11853104084730147 0.0032833842560648914
0.0031201306264847517 -0.11909667402505875 0.0027331425808370113
0.003083207178860903 -0.11958632618188858 0.0020987591706216335
0.003045693039894104 -0.11999999731779097 0.0014238149160519242

CELLS 50 150
2 0 1
2 1 2
2 2 3
2 3 4
2 4 5
2 5 6
2 6 7
2 7 8
2 8 9
2 9 10
2 10 11
2 11 12
2 12 13
2 13 14
2 14 15
2 15 16
2 16 17
2 17 18
2 18 19
2 19 20
2 20 21
2 21 22
2 22 23
2 23 24
2 24 25
2 25 26
2 26 27
2 27 28
2 28 29
2 29 30
2 30 31
2 31 32
2 32 33
2 33 34
2 34 35
2 35 36
2 36 37
2 37 38
2 38 39
2 39 40
2 40 41
2 41 42
2 42 43
2 43 44
2 44 45
2 45 46
2 46 47
2 47 48
2 48 49
2 49 50

CELL_TYPES 50
4
4
4
4
4
4
4
4
4
4
4
4
4
4
4
4
4
4
4
4
4
4
4
4
4
4
4
4
4
4
4
4
4
4
4
4
4
4
4
4
4
4
4
4
4
4
4
4
4
4

POINT_DATA 51

SCALARS zone float
LOOKUP_TABLE default
1.0
1.0
1.0
1.0
1.0
1.0
1.0
1.0
1.0
1.0
1.0
1.0
1.0
1.0
1.0
1.0
1.0
1.0
1.0
1.0
1.0
1.0
1.0
1.0
1.0
1.0
1.0
1.0
1.0
1.0
1.0
1.0
1.0
1.0
1.0
1.0
1.0
1.0
1.0
1.0
1.0
1.0
1.0
1.0
1.0
1.0
1.0
1.0
1.0
1.0
1.0

VECTORS normals float
-0.00016346495249308646 -0.002068363595753908 3.917586582247168e-5
-0.00028733181534335017 -0.004098737146705389 0.0001572876499267295
-0.0002512586652301252 -0.00402275612577796 0.0001688887714408338
-0.0002959130215458572 -0.003946775570511818 0.00011411542800487952
-0.0003617173351813108 -0.0038707947824150324 0.0001538368233013898
-0.000335126620484516 -0.003794813994318247 7.53693821025081e-5
-0.00016585958655923605 -0.003718833439052105 -5.620517913484946e-5
3.856507100863382e-5 -0.0036428526509553194 -1.9558240182959707e-6
0.00017817027401179075 -0.003566872095689177 4.4098615035181865e-6
0.0002414538903394714 -0.0034908913075923915 -8.369932766072452e-5
0.00023929805320221928 -0.003414910519495607 -5.07217446283903e-5
0.00020282164041418582 -0.003338929964229465 -5.406232048699167e-6
0.0001460601488361135 -0.003262949176132679 -3.8902122469153255e-5
8.396180783165619e-5 -0.0031869683880358934 -9.046726336237043e-5
4.104220715817064e-5 -0.0031109878327697515 -0.00010427402594359592
1.9746014004340395e-5 -0.003035007044672966 -7.513265882153064e-5
1.6199513993342407e-5 -0.0029590262565761805 -2.539750494179316e-5
2.2040156181901693e-5 -0.0028830457013100386 1.4487103726423811e-5
2.6869760404224508e-5 -0.002807064913213253 2.4159277018043213e-5
3.6020985135110095e-5 -0.0027310841251164675 6.922104148543439e-6
3.733187259058468e-5 -0.0026551035698503256 -2.2976237232796848e-5
3.555733201210387e-5 -0.00257912278175354 -4.680394704337232e-5
4.305047696107067e-5 -0.002503142226487398 -5.358497583074495e-5
4.652824645745568e-5 -0.0024271614383906126 -4.598908708430827e-5
4.336517667979933e-5 -0.002351180650293827 -2.8504067813628357e-5
4.2152376408921555e-5 -0.002275200095027685 -4.7275434553739615e-6
4.205681398161687e-5 -0.0021992193069308996 2.0008332285215147e-5
3.8072852476034313e-5 -0.002123238518834114 4.015445301774889e-5
3.158946492476389e-5 -0.002047257963567972 5.194206823944114e-5
2.760080860753078e-5 -0.0019712771754711866 5.363656964618713e-5
2.850641067198012e-5 -0.0018952965037897231 4.570791861624457e-5
3.2207175536314026e-5 -0.0018193157156929374 3.057073263335042e-5
3.3850083127617836e-5 -0.0017433350440114737 1.1751208148780279e-5
3.2291711249854416e-5 -0.00166735437233001 -6.356615358527051e-6
3.161442145938054e-5 -0.0015913737006485462 -1.910006358230021e-5
3.356763409101404e-5 -0.0015153929125517607 -2.3011656594462693e-5
3.538468081387691e-5 -0.001439412240870297 -1.6643167327856645e-5
3.4792101359926164e-5 -0.0013634315691888332 -1.6461082168461871e-6
3.270775778219104e-5 -0.0012874507810920477 1.6616108041489497e-5
3.0274881282821298e-5 -0.001211470109410584 3.0723433155799285e-5
2.6943627744913098e-5 -0.0011354894377291203 3.373807339812629e-5
2.1934773030807264e-5 -0.0010595087660476565 2.083475010294933e-5
1.506981334387092e-5 -0.000983527977950871 -1.1748934412025847e-5
6.568267963302787e-6 -0.0009075473062694074 -6.832506915088743e-5
-3.061904180867714e-6 -0.0008315665763802826 -0.00015130246174521744
-1.3021096492593642e-5 -0.0007555859046988189 -0.00025738836848177016
-2.2314161469694227e-5 -0.0006796051748096943 -0.0003766683512367308
-2.9934990379842926e-5 -0.0006036245031282306 -0.0004941073129884899
-3.506556458887644e-5 -0.0005276437732391059 -0.000592312659136951
-3.721884422702715e-5 -0.0004516630724538117 -0.0006546638906002045
-1.8757042198558338e-5 -0.00020683636830653995 -0.0003374720981810242

CELL_DATA 50

VECTORS liftinglineloading               float
0.08394255489110947 0.007984267547726631 -0.09126058965921402
0.0812947228550911 0.009469619952142239 -0.10823825001716614
-0.02966565266251564 0.004894846118986607 -0.055948350578546524
0.20538930594921112 0.008017520420253277 -0.09164068102836609
0.021111665293574333 0.017947940155863762 -0.20514591038227079
-0.6351165175437927 0.03513823822140694 -0.4016318917274475
-1.8772436380386353 0.06965529918670654 -0.7961636781692505
-3.1103031635284424 0.09879305213689804 -1.1292097568511963
-4.29389762878418 0.12506236135959625 -1.429469347000122
-5.770615577697754 0.15338337421417236 -1.753179907798767
-7.139322757720948 0.1761399656534195 -2.013288974761963
-8.525755882263184 0.19856038689613342 -2.2695555686950684
-9.41382122039795 0.21183735132217407 -2.421312093734741
-9.926671028137207 0.21592308580875397 -2.4680120944976807
-10.27452564239502 0.2149315029382706 -2.4566783905029297
-11.217737197875977 0.220881387591362 -2.524685859680176
-11.527299880981445 0.2157129943370819 -2.4656107425689697
-12.123598098754883 0.21837185323238373 -2.496001720428467
-12.383330345153809 0.2138870358467102 -2.444739818572998
-12.821614265441895 0.21431225538253784 -2.4496002197265625
-12.966411590576172 0.21134641766548154 -2.415700674057007
-13.303479194641115 0.20955033600330353 -2.3951711654663086
-13.364848136901854 0.1984582096338272 -2.268387794494629
-13.553952217102049 0.19443829357624054 -2.222439765930176
-13.646900177001955 0.1867140829563141 -2.1341516971588135
-13.881945610046385 0.1819542497396469 -2.079746723175049
-14.31020164489746 0.17980055510997772 -2.0551297664642334
-14.637288093566893 0.17459715902805328 -1.9956547021865845
-14.835992813110352 0.1712605059146881 -1.9575164318084717
-15.065709114074707 0.16473324596881866 -1.8829095363616943
-15.67343044281006 0.1606273055076599 -1.8359785079956052
-16.024900436401367 0.15360121428966522 -1.7556698322296143
-16.58226203918457 0.14590726792812347 -1.6677275896072388
-16.7154541015625 0.136638343334198 -1.5617834329605103
-16.55681037902832 0.12913857400417328 -1.4760606288909912
-16.503389358520508 0.12374190241098403 -1.4143763780593872
-16.473392486572266 0.1185515895485878 -1.3550509214401245
-16.2023868560791 0.11583208292722702 -1.3239667415618896
-15.999692916870117 0.11507808417081833 -1.315348505973816
-15.703672409057617 0.11395195126533508 -1.3024767637252808
-15.459710121154785 0.11324818432331085 -1.2944327592849731
-14.428907394409181 0.10910260677337648 -1.2470484972000122
-13.000900268554688 0.12239968776702881 -1.399034857749939
-11.078969955444336 0.1200036033987999 -1.3716474771499634
-9.318451881408691 0.13733546435832977 -1.5697516202926636
-7.48733901977539 0.1446370780467987 -1.6532093286514282
-5.828840732574463 0.13999219238758087 -1.6001181602478027
-4.218615531921387 0.12821036577224731 -1.4654512405395508
-2.814131259918213 0.1147233173251152 -1.3112934827804565
-1.2941802740097046 0.10136564075946808 -1.1586146354675293