# vtk DataFile Version 4.0
 
ASCII
DATASET UNSTRUCTURED_GRID
POINTS 51 float
0.002990470267832279 0.006849339231848718 -0.002909804694354534
0.002663540421053767 0.010936825536191463 -0.0022686307784169912
0.0024158067535609007 0.014976900070905684 -0.00179612438660115
0.0021610232070088387 0.01891876384615898 -0.0012041882146149874
0.0018239807104691865 0.02279016189277172 -0.0006501871976070106
0.0014375883620232344 0.02659616805613041 -0.00016287471225950867
0.0011537274112924933 0.030290663242340084 0.000519289227668196
0.0011058691889047623 0.03390131890773773 0.0012393651995807886
0.0012308575678616762 0.03746500238776207 0.0017882909160107374
0.0014622097369283438 0.04092821851372719 0.002469441154971719
0.0017137653194367886 0.04431164637207985 0.0031655202619731426
0.0019408058142289517 0.04763666167855263 0.0037553294096142054
0.0021194086875766516 0.05088617652654648 0.0043357666581869125
0.0022329261992126703 0.054049909114837646 0.00496516190469265
0.0022873322013765574 0.05713186040520668 0.0056207748129963875
0.002315010642632842 0.06014114245772362 0.006250976584851742
0.0023268242366611958 0.06308356672525406 0.0068228039890527725
0.002347409725189209 0.06596046686172485 0.007328658830374479
0.002370904665440321 0.06876708567142487 0.007795541547238828
0.002401149133220315 0.07149769365787506 0.008255957625806332
0.0024429464247077703 0.07414867728948593 0.008730403147637844
0.0024758127983659506 0.0767192468047142 0.009223319590091705
0.0025140612851828337 0.07921230047941208 0.00971830915659666
0.0025619138032197952 0.08163087069988251 0.010198193602263927
0.0026071176398545504 0.08397690951824188 0.010651834309101105
0.0026486441493034363 0.0862518921494484 0.011070892214775085
0.0026914223562926054 0.08845653384923935 0.011451314203441143
0.0027327577117830515 0.0905904546380043 0.011795264668762684
0.0027675682213157415 0.09265244007110596 0.01210961863398552
0.0027959367725998163 0.0946408063173294 0.012403964065015316
0.002822769805788994 0.0965537279844284 0.012688592076301576
0.002852949546650052 0.09838968515396118 0.012972166761755943
0.0028871840331703424 0.10014770179986954 0.013260221108794214
0.0029206497129052877 0.1018274649977684 0.013554475270211695
0.0029517675284296274 0.10342954099178314 0.013851807452738285
0.0029838785994797945 0.10495522618293761 0.0141447726637125
0.003018902847543359 0.1064062863588333 0.014423422515392303
0.0030546479392796755 0.10778453201055527 0.014677456580102442
0.0030884870793670416 0.10909115523099899 0.014900179579854012
0.0031200633384287357 0.11032608896493912 0.0150918560102582
0.0031490367837250233 0.11148795485496522 0.015260404907166958
0.003173950593918562 0.11257428675889969 0.015419756062328817
0.003192906267940998 0.11358201503753662 0.015587331727147102
0.003204090287908912 0.11450737714767457 0.015784472227096558
0.0032060428056865926 0.11534580588340758 0.016037093475461006
0.0031979666091501713 0.11609269678592682 0.01637127995491028
0.0031800006981939077 0.11674463003873825 0.01680646277964115
0.003153338097035885 0.11730044335126877 0.01734919659793377
0.0031201306264847517 0.11776193231344223 0.017989300191402435
0.003083207178860903 0.11813398450613022 0.018699074164032936
0.003045693039894104 0.11842416971921921 0.019435597583651543

CELLS 50 150
2 0 1
2 1 2
2 2 3
2 3 4
2 4 5
2 5 6
2 6 7
2 7 8
2 8 9
2 9 10
2 10 11
2 11 12
2 12 13
2 13 14
2 14 15
2 15 16
2 16 17
2 17 18
2 18 19
2 19 20
2 20 21
2 21 22
2 22 23
2 23 24
2 24 25
2 25 26
2 26 27
2 27 28
2 28 29
2 29 30
2 30 31
2 31 32
2 32 33
2 33 34
2 34 35
2 35 36
2 36 37
2 37 38
2 38 39
2 39 40
2 40 41
2 41 42
2 42 43
2 43 44
2 44 45
2 45 46
2 46 47
2 47 48
2 48 49
2 49 50

CELL_TYPES 50
4
4
4
4
4
4
4
4
4
4
4
4
4
4
4
4
4
4
4
4
4
4
4
4
4
4
4
4
4
4
4
4
4
4
4
4
4
4
4
4
4
4
4
4
4
4
4
4
4
4

POINT_DATA 51

SCALARS zone float
LOOKUP_TABLE default
1.0
1.0
1.0
1.0
1.0
1.0
1.0
1.0
1.0
1.0
1.0
1.0
1.0
1.0
1.0
1.0
1.0
1.0
1.0
1.0
1.0
1.0
1.0
1.0
1.0
1.0
1.0
1.0
1.0
1.0
1.0
1.0
1.0
1.0
1.0
1.0
1.0
1.0
1.0
1.0
1.0
1.0
1.0
1.0
1.0
1.0
1.0
1.0
1.0
1.0
1.0

VECTORS normals float
-0.00016346495249308646 0.002043743385002017 0.0003205868706572801
-0.00028733181534335017 0.004063780419528484 0.0005568400956690311
-0.0002512586652301252 0.003990968689322472 0.0005322213401086628
-0.0002959130215458572 0.003906630910933018 0.0005729686236009002
-0.0003617173351813108 0.0038387021049857135 0.000520656758453697
-0.000335126620484516 0.003750250209122896 0.0005847382126376033
-0.00016585958655923605 0.0036525761242955923 0.000701119948644191
3.856507100863382e-5 0.0035871700383722786 0.0006345008150674403
0.00017817027401179075 0.003513448871672153 0.0006150379776954651
0.0002414538903394714 0.003423322457820177 0.0006886146729812026
0.00023929805320221928 0.003354222746565938 0.0006429441855289042
0.00020282164041418582 0.003287265310063958 0.000585123198106885
0.0001460601488361135 0.0032066223211586475 0.0006049163057468832
8.396180783165619e-5 0.0031228417064994574 0.0006425041356123984
4.104220715817064e-5 0.003045617835596204 0.0006429072236642241
1.9746014004340395e-5 0.0029758517630398273 0.0006010146462358534
1.6199513993342407e-5 0.0029096619691699743 0.0005388411809690297
2.2040156181901693e-5 0.0028417613357305527 0.0004863686044700444
2.6869760404224508e-5 0.002768614562228322 0.0004636494559235871
3.6020985135110095e-5 0.0026907948777079582 0.0004674308584071696
3.733187259058468e-5 0.0026107768062502146 0.00048368106945417816
3.555733201210387e-5 0.002531812759116292 0.0004939528880640864
4.305047696107067e-5 0.0024558089207857847 0.00048743697698228067
4.652824645745568e-5 0.0023823014926165342 0.00046676257625222206
4.336517667979933e-5 0.0023105114232748747 0.0004363492771517486
4.2152376408921555e-5 0.0022398135624825954 0.00039974006358534103
4.205681398161687e-5 0.002169282641261816 0.00036218605237081647
3.8072852476034313e-5 0.0020979545079171658 0.00032915209885686636
3.158946492476389e-5 0.002025175141170621 0.00030434963991865516
2.760080860753078e-5 0.001950642908923328 0.00028948698309250176
2.850641067198012e-5 0.0018744397675618527 0.0002841012610588223
3.2207175536314026e-5 0.001796984812244773 0.00028581457445397973
3.3850083127617836e-5 0.0017188905039802194 0.0002911542833317071
3.2291711249854416e-5 0.0016409197123721244 0.000295793084660545
3.161442145938054e-5 0.0015638804761692882 0.0002951490168925375
3.356763409101404e-5 0.0014883747790008783 0.0002858072693925351
3.538468081387691e-5 0.0014146543107926846 0.00026634163805283606
3.4792101359926164e-5 0.0013424321077764034 0.00023837850312702358
3.270775778219104e-5 0.0012707769637927413 0.00020719981694128367
3.0274881282821298e-5 0.0011984002776443958 0.00018011291103903204
2.6943627744913098e-5 0.001124097383581102 0.0001639501570025459
2.1934773030807264e-5 0.0010470303241163492 0.0001634635409573093
1.506981334387092e-5 0.000966545834671706 0.00018235828611068428
6.568267963302787e-6 0.0008818951318971813 0.00022488099057227373
-3.061904180867714e-6 0.0007926598191261292 0.00029340386390686035
-1.3021096492593642e-5 0.0006994118448346853 0.00038468415732495487
-2.2314161469694227e-5 0.0006038727005943656 0.0004889580886811018
-2.9934990379842926e-5 0.0005086532328277826 0.0005914189969189465
-3.506556458887644e-5 0.00041677369154058397 0.0006749384920112789
-3.721884422702715e-5 0.00033112012897618115 0.0007231485215015709
-1.8757042198558338e-5 0.00014509263564832509 0.000368261884432286

CELL_DATA 50

VECTORS liftinglineloading               float
0.05263421684503555 -0.017930926755070686 0.06691912561655045
-0.014512954279780388 -0.0020542554557323456 0.007666585966944695
0.06302940100431442 -0.018539147451519966 0.06918904185295105
0.09705383330583572 -0.0369204580783844 0.1377890259027481
-0.20769666135311127 -0.06764817237854004 0.2524664103984833
-0.9201191067695617 -0.12393585592508315 0.46253490447998047
-2.155653476715088 -0.2213723361492157 0.8261728286743163
-3.230116605758667 -0.2979278266429901 1.1118817329406738
-4.218374252319336 -0.3653385043144226 1.3634618520736694
-5.485137939453125 -0.440285861492157 1.643169164657593
-6.681673526763916 -0.5024496912956238 1.8751678466796873
-7.950725555419922 -0.5656335353851318 2.1109731197357178
-8.848211288452148 -0.6080819368362427 2.269392728805542
-9.402558326721191 -0.622693657875061 2.3239243030548096
-9.806268692016602 -0.6217840313911438 2.3205294609069824
-10.673688888549805 -0.6386545300483704 2.383491039276123
-11.021224975585938 -0.6262032389640808 2.337022304534912
-11.669736862182617 -0.636475682258606 2.375359535217285
-11.997688293457031 -0.6267451047897339 2.3390445709228516
-12.507049560546875 -0.6302201747894287 2.35201358795166
-12.724061965942383 -0.6230565905570984 2.3252787590026855
-13.129239082336426 -0.6189600229263306 2.309990406036377
-13.02816390991211 -0.5847735404968262 2.1824045181274414
-13.197108268737795 -0.5729036331176758 2.1381053924560547
-13.297110557556152 -0.5511791706085205 2.0570285320281982
-13.548390388488771 -0.5379778146743774 2.007760524749756
-13.95060348510742 -0.5317407846450806 1.9844835996627808
-14.269455909729004 -0.5166640281677246 1.9282164573669431
-14.48892307281494 -0.5073602795600891 1.8934942483901978
-14.769067764282227 -0.4887852370738983 1.824171304702759
-15.527336120605469 -0.47737574577331543 1.7815905809402466
-15.94321346282959 -0.4565732181072235 1.7039544582366943
-16.57193374633789 -0.4332564175128937 1.6169350147247314
-16.779399871826172 -0.40504759550094604 1.5116581916809082
-16.685314178466797 -0.38206902146339417 1.425900936126709
-16.691036224365234 -0.3654480278491974 1.363870620727539
-16.711673736572266 -0.3497915267944336 1.3054397106170654
-16.4597225189209 -0.3415018320083618 1.274502158164978
-16.233816146850586 -0.3397561311721802 1.2679871320724487
-15.979104995727539 -0.336428701877594 1.2555691003799438
-15.744509696960451 -0.3343617916107178 1.2478551864624023
-14.71808624267578 -0.322373628616333 1.2031147480010986
-13.2625207901001 -0.36349642276763916 1.3565870523452759
-11.326406478881836 -0.3576485216617584 1.334762454032898
-9.545378684997559 -0.411045253276825 1.5340417623519897
-7.7101826667785645 -0.4330145120620728 1.6160321235656738
-6.022538185119629 -0.4196435511112213 1.5661311149597168
-4.380161285400391 -0.3847682774066925 1.4359747171401978
-2.936372995376587 -0.34451717138290405 1.2857555150985718
-1.3583704233169556 -0.3044793903827667 1.1363325119018555