# vtk DataFile Version 4.0
 
ASCII
DATASET UNSTRUCTURED_GRID
POINTS 51 float
0.002990470267832279 0.002785671502351761 -0.0069007566198706636
0.002663540421053767 0.006129339337348938 -0.009337668307125568
0.0024158067535609007 0.009320216253399849 -0.011860319413244724
0.0021610232070088387 0.01252609584480524 -0.014229075051844118
0.0018239807104691865 0.01565532572567463 -0.016574829816818237
0.0014375883620232344 0.018691161647439003 -0.0189215000718832
0.0011537274112924933 0.021785926073789597 -0.021051540970802307
0.0011058691889047623 0.024848217144608498 -0.023095490410923958
0.0012308575678616762 0.02775627002120018 -0.025227244943380356
0.0014622097369283438 0.03068677894771099 -0.027194460853934288
0.0017137653194367886 0.03357142582535744 -0.029094705358147618
0.0019408058142289517 0.03633962571620941 -0.031028788536787033
0.0021194086875766516 0.039047811180353165 -0.032916110008955
0.0022329261992126703 0.04172995686531067 -0.03470815718173981
0.0022873322013765574 0.044372815638780594 -0.03642383962869644
0.002315010642632842 0.046946316957473755 -0.038106102496385574
0.0023268242366611958 0.049431268125772476 -0.039782363921403885
0.002347409725189209 0.051823239773511894 -0.04145894944667816
0.002370904665440321 0.054137952625751495 -0.04311339557170868
0.002401149133220315 0.05639434978365899 -0.0447186604142189
0.0024429464247077703 0.05860435962677002 -0.04625770449638367
0.0024758127983659506 0.06077057495713234 -0.0477268286049366
0.0025140612851828337 0.06288343667984009 -0.04913967475295067
0.0025619138032197952 0.06493294984102249 -0.050510529428720474
0.0026071176398545504 0.06691262125968933 -0.05184865742921829
0.0026486441493034363 0.06881760060787201 -0.05316099151968955
0.0026914223562926054 0.0706455186009407 -0.05445091426372528
0.0027327577117830515 0.0723976343870163 -0.0557166151702404
0.0027675682213157415 0.07407796382904053 -0.056952375918626785
0.0027959367725998163 0.0756920799612999 -0.05815022811293602
0.002822769805788994 0.07724598795175552 -0.05930160731077194
0.002852949546650052 0.07874471694231033 -0.06039930507540703
0.0028871840331703424 0.08019150793552399 -0.061438724398612976
0.0029206497129052877 0.08158735185861588 -0.062418431043624885
0.0029517675284296274 0.08293043822050095 -0.06334102153778076
0.0029838785994797945 0.0842164158821106 -0.06421268731355667
0.003018902847543359 0.08543950319290161 -0.06504170596599579
0.0030546479392796755 0.08659370243549347 -0.06583664566278458
0.0030884870793670416 0.08767510950565338 -0.06660307198762894
0.0031200633384287357 0.08868388086557388 -0.06734076887369156
0.0031490367837250233 0.08962462097406387 -0.06804315000772476
0.003173950593918562 0.090505450963974 -0.06869862228631973
0.003192906267940998 0.09133651852607727 -0.06929270178079605
0.003204090287908912 0.09213025122880936 -0.06980763375759125
0.0032060428056865926 0.09290173649787903 -0.07022186368703842
0.0031979666091501713 0.09366617351770401 -0.07051368802785873
0.0031800006981939077 0.09443487972021103 -0.07066695392131805
0.003153338097035885 0.09521166980266571 -0.07067620009183884
0.0031201306264847517 0.0959906205534935 -0.07054990530014038
0.003083207178860903 0.09675558656454086 -0.07031109929084778
0.003045693039894104 0.09748157858848572 -0.06999549269676208

CELLS 50 150
2 0 1
2 1 2
2 2 3
2 3 4
2 4 5
2 5 6
2 6 7
2 7 8
2 8 9
2 9 10
2 10 11
2 11 12
2 12 13
2 13 14
2 14 15
2 15 16
2 16 17
2 17 18
2 18 19
2 19 20
2 20 21
2 21 22
2 22 23
2 23 24
2 24 25
2 25 26
2 26 27
2 27 28
2 28 29
2 29 30
2 30 31
2 31 32
2 32 33
2 33 34
2 34 35
2 35 36
2 36 37
2 37 38
2 38 39
2 39 40
2 40 41
2 41 42
2 42 43
2 43 44
2 44 45
2 45 46
2 46 47
2 47 48
2 48 49
2 49 50

CELL_TYPES 50
4
4
4
4
4
4
4
4
4
4
4
4
4
4
4
4
4
4
4
4
4
4
4
4
4
4
4
4
4
4
4
4
4
4
4
4
4
4
4
4
4
4
4
4
4
4
4
4
4
4

POINT_DATA 51

SCALARS zone float
LOOKUP_TABLE default
1.0
1.0
1.0
1.0
1.0
1.0
1.0
1.0
1.0
1.0
1.0
1.0
1.0
1.0
1.0
1.0
1.0
1.0
1.0
1.0
1.0
1.0
1.0
1.0
1.0
1.0
1.0
1.0
1.0
1.0
1.0
1.0
1.0
1.0
1.0
1.0
1.0
1.0
1.0
1.0
1.0
1.0
1.0
1.0
1.0
1.0
1.0
1.0
1.0
1.0
1.0

VECTORS normals float
-0.00016346495249308646 0.0016718339174985886 -0.0012184556107968092
-0.00028733181534335017 0.003267272142693401 -0.002479781396687031
-0.0002512586652301252 0.0031983782537281513 -0.002445703838020563
-0.0002959130215458572 0.0031675552017986774 -0.0023572552017867565
-0.0003617173351813108 0.0030825322028249502 -0.002346212510019541
-0.000335126620484516 0.0030652997083961964 -0.002238354878500104
-0.00016585958655923605 0.003078527981415391 -0.002086994703859091
3.856507100863382e-5 0.0029851719737052917 -0.0020878524519503117
0.00017817027401179075 0.0029192811343818903 -0.0020494861528277397
0.0002414538903394714 0.0029075786005705595 -0.0019337305566295981
0.00023929805320221928 0.0028264238499104977 -0.0019171633757650852
0.00020282164041418582 0.0027381922118365765 -0.0019107030238956215
0.0001460601488361135 0.0026951648760586977 -0.0018396839732304215
8.396180783165619e-5 0.0026625015307217836 -0.0017538635293021798
4.104220715817064e-5 0.0026081812102347612 -0.001698973006568849
1.9746014004340395e-5 0.002529226476326585 -0.0016792634269222617
1.6199513993342407e-5 0.0024384597782045603 -0.0016764233587309716
2.2040156181901693e-5 0.002353343181312084 -0.0016655141953378916
2.6869760404224508e-5 0.0022855557035654783 -0.001629856415092945
3.6020985135110095e-5 0.002233202802017331 -0.0015721558593213558
3.733187259058468e-5 0.0021881121210753918 -0.001504083746112883
3.555733201210387e-5 0.002139539457857609 -0.0014409845462068915
4.305047696107067e-5 0.0020811890717595816 -0.0013918491313233972
4.652824645745568e-5 0.0020145925227552652 -0.0013544905232265592
4.336517667979933e-5 0.0019423237536102533 -0.0013252326752990484
4.2152376408921555e-5 0.00186644634231925 -0.001301128533668816
4.205681398161687e-5 0.001790018635801971 -0.0012778101954609156
3.8072852476034313e-5 0.0017162235453724861 -0.0012507322244346142
3.158946492476389e-5 0.0016472227871418 -0.0012168072862550616
2.760080860753078e-5 0.0015840110136196017 -0.001174614648334682
2.850641067198012e-5 0.0015263189561665058 -0.0011245391797274351
3.2207175536314026e-5 0.0014727616216987371 -0.0010685587767511606
3.3850083127617836e-5 0.0014213162939995527 -0.0010095619363710284
3.2291711249854416e-5 0.0013694626977667212 -0.0009511481621302664
3.161442145938054e-5 0.0013145323609933257 -0.0008971286006271839
3.356763409101404e-5 0.001254536211490631 -0.0008503436692990362
3.538468081387691e-5 0.0011886436259374022 -0.0008119796402752398
3.4792101359926164e-5 0.001117801875807345 -0.000780683767516166
3.270775778219104e-5 0.0010450873523950577 -0.0007520625949837267
3.0274881282821298e-5 0.0009747560252435505 -0.0007200379041023552
2.6943627744913098e-5 0.0009107871446758509 -0.0006789265898987651
2.1934773030807264e-5 0.0008559484267607331 -0.0006247760611586273
1.506981334387092e-5 0.0008123979205265641 -0.0005545043386518955
6.568267963302787e-6 0.0007826088694855571 -0.00046457911957986653
-3.061904180867714e-6 0.0007679630070924759 -0.00035302728065289557
-1.3021096492593642e-5 0.0007665716111660004 -0.0002225460630143061
-2.2314161469694227e-5 0.0007727480842731893 -8.125687600113451e-5
-2.9934990379842926e-5 0.0007778685539960861 5.85242232773453e-5
-3.506556458887644e-5 0.0007719570421613753 0.00018255008035339415
-3.721884422702715e-5 0.0007454805308952928 0.00027720595244318247
-1.8757042198558338e-5 0.0003629964776337147 0.0001578044902998954

CELL_DATA 50

VECTORS liftinglineloading               float
0.05173809826374054 0.03430074453353882 0.05941063165664673
-0.017218921333551407 0.0034408634528517723 0.00595975061878562
0.065309077501297 0.037193331867456436 0.06442073732614517
0.07822530716657639 0.07420161366462708 0.12852096557617188
-0.23576579988002777 0.13463141024112701 0.23318845033645633
-0.9811554551124573 0.24812014400959015 0.42975670099258423
-2.2475674152374268 0.43802139163017273 0.7586753368377686
-3.334808111190796 0.586951732635498 1.0166301727294922
-4.313035488128662 0.7151458859443665 1.2386689186096191
-5.582367420196533 0.859896421432495 1.4893842935562134
-6.763809680938721 0.978137195110321 1.6941833496093752
-8.010176658630371 1.0983535051345825 1.902404069900513
-8.881093978881836 1.178276777267456 2.040835380554199
-9.40760326385498 1.204482913017273 2.086225748062134
-9.783167839050293 1.200711727142334 2.0796937942504883
-10.627374649047852 1.2320270538330078 2.1339333057403564
-10.95040225982666 1.2069274187088013 2.0904595851898193
-11.574211120605469 1.2257423400878906 2.1230480670928955
-11.877679824829102 1.2068438529968262 2.0903148651123047
-12.36117935180664 1.213114619255066 2.1011762619018555
-12.55097484588623 1.198645830154419 2.076115369796753
-12.925793647766113 1.189831256866455 2.0608482360839844
-12.813606262207031 1.123978853225708 1.9467885494232178
-12.957915306091309 1.100538730621338 1.90618896484375
-13.040465354919434 1.0594841241836548 1.8350802659988406
-13.270895004272461 1.0346102714538574 1.7919975519180298
-13.636436462402344 1.0223654508590698 1.7707887887954712
-13.907186508178711 0.993277132511139 1.7204064130783079
-14.085086822509767 0.9758340120315552 1.6901941299438477
-14.335736274719237 0.9414699673652648 1.6306737661361694
-15.070816040039064 0.9233190417289734 1.5992354154586792
-15.546533584594727 0.8850703239440918 1.5329867601394653
-16.164674758911133 0.8398515582084656 1.4546655416488647
-16.406917572021484 0.787634015083313 1.3642220497131348
-16.349645614624023 0.7431620955467224 1.2871944904327393
-16.379568099975586 0.7106608748435974 1.230900764465332
-16.421321868896484 0.6795154809951782 1.1769553422927856
-16.208433151245117 0.6629685759544373 1.148295283317566
-16.003103256225586 0.6586360931396484 1.1407911777496338
-15.763614654541014 0.6516117453575134 1.128624677658081
-15.555070877075195 0.6472367644309998 1.121047019958496
-14.548760414123533 0.6235426068305969 1.0800074338912964
-13.14922332763672 0.7015041708946228 1.215040922164917
-11.228029251098633 0.6893962621688843 1.194069266319275
-9.462678909301758 0.7913705110549927 1.3706939220428467
-7.608365058898926 0.832833230495453 1.4425095319747925
-5.935760498046875 0.8067815899848938 1.3973866701126099
-4.308684825897217 0.7394424080848694 1.2807518243789673
-2.8772733211517334 0.6619223356246948 1.146483063697815
-1.3299133777618408 0.5849554538726807 1.0131726264953613