# vtk DataFile Version 4.0
 
ASCII
DATASET UNSTRUCTURED_GRID
POINTS 51 float
0.002990470267832279 0.005944634322077036 0.004476799163967371
0.002663540421053767 0.007433104794472455 0.008337253704667091
0.0024158067535609007 0.009043939411640167 0.012072313576936722
0.0021610232070088387 0.010502239689230919 0.015782035887241364
0.0018239807104691865 0.011958159506320953 0.019411766901612282
0.0014375883620232344 0.01343913748860359 0.0229515191167593
0.0011537274112924933 0.014695613645017147 0.026492128148674965
0.0011058691889047623 0.015877338126301765 0.029979087412357327
0.0012308575678616762 0.01718379557132721 0.033339790999889374
0.0014622097369283438 0.018325509503483772 0.036679595708847046
0.0017137653194367886 0.019414402544498444 0.03995777294039726
0.0019408058142289517 0.020566120743751526 0.043132226914167404
0.0021194086875766516 0.021688204258680344 0.04623660445213318
0.0022329261992126703 0.022724997252225876 0.04929117485880852
0.0022873322013765574 0.023698197677731514 0.052288029342889786
0.002315010642632842 0.02465706691145897 0.05520924553275108
0.0023268242366611958 0.02563306130468845 0.05804337188601494
0.002347409725189209 0.026633428409695625 0.06078777089715004
0.002370904665440321 0.02763240784406662 0.06345181912183762
0.002401149133220315 0.028598979115486145 0.06604679673910141
0.0024429464247077703 0.02951358817517757 0.06857983767986298
0.0024758127983659506 0.03037199564278126 0.07105247676372528
0.0025140612851828337 0.031189849600195885 0.07345902174711227
0.0025619138032197952 0.03198353946208954 0.07579350471496582
0.0026071176398545504 0.03276369348168373 0.07805205136537552
0.0026486441493034363 0.033538270741701126 0.08023177087306976
0.0026914223562926054 0.03431113809347153 0.08233126252889633
0.0027327577117830515 0.03508022800087929 0.08435127139091492
0.0027675682213157415 0.035838983952999115 0.08629418164491653
0.0027959367725998163 0.036578256636857986 0.08816332370042801
0.002822769805788994 0.03728822246193886 0.08996228128671646
0.002852949546650052 0.03796061873435974 0.09169404953718185
0.0028871840331703424 0.03859015926718712 0.09336055815219879
0.0029206497129052877 0.039175212383270264 0.09496241062879562
0.0029517675284296274 0.03971875086426735 0.0964985117316246
0.0029838785994797945 0.04022788256406784 0.0979662761092186
0.003018902847543359 0.04071209207177162 0.09936226159334183
0.0030546479392796755 0.04118121787905693 0.10068287700414658
0.0030884870793670416 0.04164164140820503 0.1019257977604866
0.0031200633384287357 0.04209311306476593 0.10309112071990968
0.0031490367837250233 0.04252807796001434 0.10418160259723663
0.003173950593918562 0.04293324053287506 0.1052020713686943
0.003192906267940998 0.043291982263326645 0.10615857690572739
0.003204090287908912 0.043583933264017105 0.1070585325360298
0.0032060428056865926 0.04378436878323555 0.10791094601154327
0.0031979666091501713 0.043868403881788254 0.10872486233711243
0.0031800006981939077 0.043817490339279175 0.10950704663991928
0.003153338097035885 0.043625373393297195 0.1102597564458847
0.0031201306264847517 0.0433017760515213 0.11097947508096695
0.003083207178860903 0.04287312179803848 0.11165656894445421
0.003045693039894104 0.04238036647439003 0.11227614432573317

CELLS 50 150
2 0 1
2 1 2
2 2 3
2 3 4
2 4 5
2 5 6
2 6 7
2 7 8
2 8 9
2 9 10
2 10 11
2 11 12
2 12 13
2 13 14
2 14 15
2 15 16
2 16 17
2 17 18
2 18 19
2 19 20
2 20 21
2 21 22
2 22 23
2 23 24
2 24 25
2 25 26
2 26 27
2 27 28
2 28 29
2 29 30
2 30 31
2 31 32
2 32 33
2 33 34
2 34 35
2 35 36
2 36 37
2 37 38
2 38 39
2 39 40
2 40 41
2 41 42
2 42 43
2 43 44
2 44 45
2 45 46
2 46 47
2 47 48
2 48 49
2 49 50

CELL_TYPES 50
4
4
4
4
4
4
4
4
4
4
4
4
4
4
4
4
4
4
4
4
4
4
4
4
4
4
4
4
4
4
4
4
4
4
4
4
4
4
4
4
4
4
4
4
4
4
4
4
4
4

POINT_DATA 51

SCALARS zone float
LOOKUP_TABLE default
1.0
1.0
1.0
1.0
1.0
1.0
1.0
1.0
1.0
1.0
1.0
1.0
1.0
1.0
1.0
1.0
1.0
1.0
1.0
1.0
1.0
1.0
1.0
1.0
1.0
1.0
1.0
1.0
1.0
1.0
1.0
1.0
1.0
1.0
1.0
1.0
1.0
1.0
1.0
1.0
1.0
1.0
1.0
1.0
1.0
1.0
1.0
1.0
1.0
1.0
1.0

VECTORS normals float
-0.00016346495249308646 0.000744235294405371 0.0019302271539345384
-0.00028733181534335017 0.0015496526611968875 0.0037977572064846754
-0.0002512586652301252 0.0015345672145485878 0.0037223908584564924
-0.0002959130215458572 0.001457110163755715 0.0036697259638458486
-0.0003617173351813108 0.0014684491325169802 0.0035847420804202552
-0.000335126620484516 0.001368726952932775 0.003540180856361985
-0.00016585958655923605 0.0012191003188490868 0.0035137836821377277
3.856507100863382e-5 0.001244091079570353 0.0034238307271152735
0.00017817027401179075 0.001224086037836969 0.003350255079567432
0.0002414538903394714 0.001115303486585617 0.0033089916687458754
0.00023929805320221928 0.0011203053873032331 0.003226314205676317
0.00020282164041418582 0.0011369010899215937 0.0031394166871905327
0.0001460601488361135 0.001079438254237175 0.0030794746708124876
8.396180783165619e-5 0.0010049960110336542 0.0030257124453783035
4.104220715817064e-5 0.0009660349460318685 0.002959036035463214
1.9746014004340395e-5 0.0009674319298937917 0.0028776705730706453
1.6199513993342407e-5 0.000988180749118328 0.0027892617508769035
2.2040156181901693e-5 0.0009996731532737613 0.0027042217552661896
2.6869760404224508e-5 0.0009827750036492944 0.0026295152492821217
3.6020985135110095e-5 0.0009405904565937818 0.0025640123058110476
3.733187259058468e-5 0.0008865082636475563 0.002502839546650648
3.555733201210387e-5 0.0008381306543014944 0.002439590636640787
4.305047696107067e-5 0.0008057716186158359 0.0023705114144831896
4.652824645745568e-5 0.0007869224646128714 0.0022965148091316223
4.336517667979933e-5 0.0007773661054670811 0.002219136105850339
4.2152376408921555e-5 0.0007737217820249498 0.0021396055817604065
4.205681398161687e-5 0.0007709789788350463 0.0020597469992935658
3.8072852476034313e-5 0.0007639232208020985 0.0019814579281955957
3.158946492476389e-5 0.0007490130374208093 0.0019060279009863734
2.760080860753078e-5 0.0007246183813549578 0.0018340498208999634
2.850641067198012e-5 0.0006911809905432165 0.0017653630347922442
3.2207175536314026e-5 0.0006509697414003313 0.0016991418087854981
3.3850083127617836e-5 0.0006072982214391232 0.0016341799637302758
3.2291711249854416e-5 0.0005642955075018108 0.001568974694237113
3.161442145938054e-5 0.0005263336352072656 0.0015019347192719579
3.356763409101404e-5 0.0004966710112057626 0.0014318739995360374
3.538468081387691e-5 0.00047666853060945874 0.0013582974206656218
3.4792101359926164e-5 0.000464774202555418 0.0012817695969715714
3.270775778219104e-5 0.00045594814582727844 0.0012041250010952353
3.0274881282821298e-5 0.00044321778113953764 0.0011279014870524406
2.6943627744913098e-5 0.00042006367584690457 0.0010554719483479857
2.1934773030807264e-5 0.00038195159868337214 0.0009884865721687675
1.506981334387092e-5 0.00032534601632505655 0.0009282323881052433
6.568267963302787e-6 0.0002461948897689581 0.0008761840872466564
-3.061904180867714e-6 0.00014223471225704998 0.0008331654826179148
-1.3021096492593642e-5 1.6559652067371644e-5 0.0007980504888109864
-2.2314161469694227e-5 -0.00012151380360592158 0.0007674481603316963
-2.9934990379842926e-5 -0.0002578572602942586 0.0007362161413766444
-3.506556458887644e-5 -0.00037612701999023557 0.0006984058418311179
-3.721884422702715e-5 -0.00046070493408478796 0.0006483327015303075
-1.8757042198558338e-5 -0.0002463778364472091 0.00030978486756794155

CELL_DATA 50

VECTORS liftinglineloading               float
0.05689715966582299 -0.06981678307056427 0.01870734989643097
-0.002678843680769205 -0.016125433146953583 0.004320796579122543
0.05278190225362778 -0.06309116631746292 0.016905227676033974
0.13900837302207947 -0.12473569065332414 0.03342282772064209
-0.15535327792167664 -0.23945504426956177 0.06416178494691849
-0.8319590091705321 -0.4390195310115815 0.11763492971658705
-2.0486562252044678 -0.8040075898170471 0.21543318033218384
-3.1442723274230957 -1.095479130744934 0.29353275895118713
-4.177358150482178 -1.358099341392517 0.36390164494514465
-5.4843926429748535 -1.6457545757293703 0.44097861647605896
-6.803209781646728 -1.8969547748565674 0.5082874894142151
-8.070941925048828 -2.1328392028808594 0.5714925527572632
-8.956405639648438 -2.2897164821624756 0.6135277152061462
-9.489129066467285 -2.3416900634765625 0.6274539232254028
-9.871452331542969 -2.335862874984741 0.6258925795555115
-10.72393798828125 -2.3975090980529785 0.6424106359481812
-11.2366361618042 -2.36672043800354 0.6341608166694641
-11.903956413269043 -2.4056360721588135 0.6445882320404053
-12.250669479370117 -2.3673081398010254 0.6343182921409607
-12.785740852355957 -2.379976749420166 0.637712836265564
-13.031168937683105 -2.3532609939575195 0.6305543780326843
-13.46956443786621 -2.3386244773864746 0.6266325116157532
-13.37516975402832 -2.208721876144409 0.5918252468109131
-13.56355094909668 -2.16391921043396 0.579820454120636
-13.666481971740723 -2.078697919845581 0.5569854378700256
-13.907557487487793 -2.0260236263275146 0.542871356010437
-14.3115816116333 -2.001239061355591 0.5362303853034973
-14.618363380432127 -1.9427490234375 0.5205580592155457
-14.791687965393065 -1.9052699804306032 0.510515570640564
-14.98973274230957 -1.83280873298645 0.4910996258258819
-15.654166221618652 -1.7880419492721558 0.4791043996810913
-16.009918212890625 -1.7098978757858276 0.45816576480865473
-16.538076400756836 -1.6243882179260254 0.4352535009384155
-16.653175354003906 -1.5227940082550049 0.40803143382072454
-16.488197326660156 -1.4395006895065308 0.38571304082870483
-16.418489456176758 -1.3796415328979492 0.36967381834983826
-16.37250518798828 -1.3215714693069458 0.35411399602890015
-16.1063289642334 -1.291050910949707 0.34593603014945984
-15.83044719696045 -1.2832587957382202 0.3438481390476227
-15.528292655944826 -1.2698971033096313 0.3402678966522217
-15.291397094726564 -1.2616117000579834 0.3380478322505951
-14.261679649353027 -1.2146786451339722 0.3254721462726593
-12.85150146484375 -1.3581207990646362 0.3639073669910431
-10.936026573181152 -1.3283147811889648 0.3559208810329437
-9.184823036193848 -1.5151658058166504 0.4059874415397644
-7.350416183471681 -1.5947468280792236 0.4273111224174499
-5.7060866355896 -1.5414155721664429 0.413021057844162
-4.112671852111816 -1.4097093343734741 0.37773045897483826
-2.756777763366699 -1.2641167640686035 0.33871906995773315
-1.2626699209213257 -1.116158366203308 0.2990737557411194