# vtk DataFile Version 4.0
 
ASCII
DATASET UNSTRUCTURED_GRID
POINTS 51 float
0.002990470267832279 0.0016762228915467858 0.0072505646385252484
0.002663540421053767 0.00033500537392683327 0.01116461493074894
0.0024158067535609007 -0.0008318742038682103 0.015061261132359505
0.0021610232070088387 -0.0020993149373680353 0.018840450793504715
0.0018239807104691865 -0.0033171607647091146 0.022556832060217857
0.0014375883620232344 -0.00445797573775053 0.026220394298434258
0.0011537274112924933 -0.0057713184505701065 0.029740305617451668
0.0011058691889047623 -0.007107438985258341 0.033171068876981735
0.0012308575678616762 -0.008266852237284184 0.03658528998494148
0.0014622097369283438 -0.009539035148918629 0.03987761214375496
0.0017137653194367886 -0.010812065564095974 0.04308876767754555
0.0019408058142289517 -0.011970297433435917 0.04626084864139557
0.0021194086875766516 -0.013106188736855982 0.04936020448803902
0.0022329261992126703 -0.014275398105382921 0.052366577088832855
0.0022873322013765574 -0.015456226654350758 0.05528786405920982
0.002315010642632842 -0.01659940928220749 0.05814199522137641
0.0023268242366611958 -0.017673496156930923 0.060940418392419815
0.002347409725189209 -0.01867123506963253 0.06368577480316162
0.002370904665440321 -0.019618388265371323 0.06636867672204971
0.002401149133220315 -0.020545976236462593 0.06897785514593124
0.0024429464247077703 -0.02147355116903782 0.07150617241859436
0.0024758127983659506 -0.0224053543061018 0.0739521011710167
0.0025140612851828337 -0.023325737565755844 0.0763213261961937
0.0025619138032197952 -0.02421831153333187 0.0786198154091835
0.0026071176398545504 -0.02507244609296322 0.08085143566131592
0.0026486441493034363 -0.025880184024572376 0.08301909267902374
0.0026914223562926054 -0.026637658476829525 0.0851241797208786
0.0027327577117830515 -0.02734693512320518 0.0871659591794014
0.0027675682213157415 -0.028014574199914932 0.08914203196763992
0.0027959367725998163 -0.028649723157286644 0.09104907512664795
0.002822769805788994 -0.029262203723192215 0.09288351237773895
0.002852949546650052 -0.02986027859151363 0.09464233368635178
0.0028871840331703424 -0.030449233949184418 0.09632361680269241
0.0029206497129052877 -0.031030705198645592 0.09792676568031311
0.0029517675284296274 -0.03160171955823898 0.09945286810398102
0.0029838785994797945 -0.03215516731142998 0.10090450942516327
0.003018902847543359 -0.032681554555892944 0.10228513926267624
0.0030546479392796755 -0.03317106142640114 0.10359833389520647
0.0030884870793670416 -0.0336172915995121 0.10484642535448074
0.0031200633384287357 -0.034020502120256424 0.10602931678295135
0.0031490367837250233 -0.03438824415206909 0.10714425891637801
0.003173950593918562 -0.034733813256025314 0.10818641632795332
0.003192906267940998 -0.03507383540272713 0.10914973169565201
0.003204090287908912 -0.035428669303655624 0.11002680659294128
0.0032060428056865926 -0.035823043435811996 0.1108086258172989
0.0031979666091501713 -0.036281850188970566 0.11148614436388014
0.0031800006981939077 -0.03682362660765648 0.11205260455608368
0.003153338097035885 -0.03745463117957115 0.1125057265162468
0.0031201306264847517 -0.038165148347616196 0.11284905672073363
0.003083207178860903 -0.038928743451833725 0.11309220641851427
0.003045693039894104 -0.039704468101263046 0.11325008422136307

CELLS 50 150
2 0 1
2 1 2
2 2 3
2 3 4
2 4 5
2 5 6
2 6 7
2 7 8
2 8 9
2 9 10
2 10 11
2 11 12
2 12 13
2 13 14
2 14 15
2 15 16
2 16 17
2 17 18
2 18 19
2 19 20
2 20 21
2 21 22
2 22 23
2 23 24
2 24 25
2 25 26
2 26 27
2 27 28
2 28 29
2 29 30
2 30 31
2 31 32
2 32 33
2 33 34
2 34 35
2 35 36
2 36 37
2 37 38
2 38 39
2 39 40
2 40 41
2 41 42
2 42 43
2 43 44
2 44 45
2 45 46
2 46 47
2 47 48
2 48 49
2 49 50

CELL_TYPES 50
4
4
4
4
4
4
4
4
4
4
4
4
4
4
4
4
4
4
4
4
4
4
4
4
4
4
4
4
4
4
4
4
4
4
4
4
4
4
4
4
4
4
4
4
4
4
4
4
4
4

POINT_DATA 51

SCALARS zone float
LOOKUP_TABLE default
1.0
1.0
1.0
1.0
1.0
1.0
1.0
1.0
1.0
1.0
1.0
1.0
1.0
1.0
1.0
1.0
1.0
1.0
1.0
1.0
1.0
1.0
1.0
1.0
1.0
1.0
1.0
1.0
1.0
1.0
1.0
1.0
1.0
1.0
1.0
1.0
1.0
1.0
1.0
1.0
1.0
1.0
1.0
1.0
1.0
1.0
1.0
1.0
1.0
1.0
1.0

VECTORS normals float
-0.00016346495249308646 -0.0006706087733618915 0.0019570249132812023
-0.00028733181534335017 -0.001254048547707498 0.003905348479747772
-0.0002512586652301252 -0.001217160141095519 0.003837917698547244
-0.0002959130215458572 -0.0012426433386281133 0.00374778569675982
-0.0003617173351813108 -0.0011793305166065693 0.003689972683787346
-0.000335126620484516 -0.0012270788429304957 0.003591736545786262
-0.00016585958655923605 -0.0013247315073385835 0.0034753370564430948
3.856507100863382e-5 -0.0012477668933570385 0.0034224928822368383
0.00017817027401179075 -0.0012157981982454658 0.003353271633386612
0.0002414538903394714 -0.001272606779821217 0.0032517379149794574
0.00023929805320221928 -0.0012156310258433223 0.003191618481650948
0.00020282164041418582 -0.001147061469964683 0.0031357186380773783
0.0001460601488361135 -0.0011525503359735012 0.0030528639908879995
8.396180783165619e-5 -0.001175018842332065 0.0029638290870934725
4.104220715817064e-5 -0.0011620060540735722 0.002887708367779851
1.9746014004340395e-5 -0.0011086351005360484 0.002826276933774352
1.6199513993342407e-5 -0.0010359124280512333 0.0027718888595700264
2.2040156181901693e-5 -0.0009724462870508432 0.0027141314931213856
2.6869760404224508e-5 -0.0009373704669997096 0.002646041102707386
3.6020985135110095e-5 -0.0009275811607949436 0.0025687471497803926
3.733187259058468e-5 -0.0009296895004808903 0.002487122779712081
3.555733201210387e-5 -0.0009260932565666735 0.0024075747933238745
4.305047696107067e-5 -0.0009064784389920533 0.0023338571190834045
4.652824645745568e-5 -0.000873353681527078 0.002265056362375617
4.336517667979933e-5 -0.0008309362456202507 0.002199638169258833
4.2152376408921555e-5 -0.0007826066575944424 0.002136371796950698
4.205681398161687e-5 -0.0007333756075240672 0.002073433483019471
3.8072852476034313e-5 -0.0006884575122967362 0.0020089251920580864
3.158946492476389e-5 -0.0006513938424177468 0.0019415583228692415
2.760080860753078e-5 -0.0006238145870156586 0.001870739390142262
2.850641067198012e-5 -0.0006052781827747822 0.0017966291634365916
3.2207175536314026e-5 -0.0005935155786573887 0.0017200533766299486
3.3850083127617836e-5 -0.0005852131871506572 0.0016422182088717818
3.2291711249854416e-5 -0.0005762420478276908 0.0015646264655515552
3.161442145938054e-5 -0.0005622300086542964 0.001488869427703321
3.356763409101404e-5 -0.0005399187793955207 0.001416133134625852
3.538468081387691e-5 -0.0005079474649392068 0.0013469128170982003
3.4792101359926164e-5 -0.00046786788152530795 0.0012806435115635395
3.270775778219104e-5 -0.0004247200849931687 0.0012154910946264863
3.0274881282821298e-5 -0.0003854765964206308 0.0011489175958558917
2.6943627744913098e-5 -0.0003566568484529853 0.0010785501217469573
2.1934773030807264e-5 -0.00034279507235623896 0.0010027384851127863
1.506981334387092e-5 -0.0003474267723504454 0.000920195656362921
6.568267963302787e-6 -0.0003746040165424347 0.0008294469444081188
-3.061904180867714e-6 -0.00042659035534597933 0.0007296685362234712
-1.3021096492593642e-5 -0.0005002915277145803 0.0006219865172170103
-2.2314161469694227e-5 -0.000586391135584563 0.000509791832882911
-2.9934990379842926e-5 -0.0006707606953568757 0.0003982268390245736
-3.506556458887644e-5 -0.0007370566017925739 0.00029324012575671077
-3.721884422702715e-5 -0.0007696606917306781 0.00020051623869221655
-1.8757042198558338e-5 -0.0003878622374031693 7.894034933997318e-5

CELL_DATA 50

VECTORS liftinglineloading               float
0.05192975699901581 -0.0623868852853775 -0.029091482982039455
-0.017287982627749443 -0.006261216476559639 -0.002919653197750449
0.06566824018955231 -0.06781280040740967 -0.031621627509593964
0.07683039456605911 -0.13560447096824646 -0.0632334053516388
-0.241558313369751 -0.2464140355587006 -0.11490475386381149
-1.0013686418533325 -0.45589911937713623 -0.21258924901485446
-2.2901110649108887 -0.8041811585426331 -0.3749958276748657
-3.3992269039154053 -1.0783835649490356 -0.5028585195541382
-4.391402244567871 -1.3125207424163818 -0.6120384931564331
-5.687627792358398 -1.5792471170425415 -0.7364150285720825
-6.887101650238037 -1.7955073118209837 -0.8372588157653807
-8.146142959594727 -2.01523494720459 -0.9397194981575011
-9.024107933044434 -2.160679578781128 -1.0075414180755615
-9.549124717712402 -2.2075212001800537 -1.0293840169906616
-9.925888061523438 -2.200437545776367 -1.026080846786499
-10.768803596496582 -2.255963087081909 -1.0519728660583496
-11.090023040771484 -2.2089014053344727 -1.0300276279449463
-11.714018821716309 -2.242394208908081 -1.0456455945968628
-12.013420104980469 -2.2063426971435547 -1.028834581375122
-12.491809844970703 -2.216701030731201 -1.0336647033691406
-12.67060375213623 -2.189246416091919 -1.020862340927124
-13.031167030334473 -2.1720333099365234 -1.0128357410430908
-12.896353721618652 -2.0505471229553223 -0.9561858773231506
-13.016552925109863 -2.0064079761505127 -0.9356033802032472
-13.072793006896973 -1.930570602416992 -0.9002398252487183
-13.275282859802244 -1.8844506740570068 -0.87873375415802
-13.606487274169922 -1.86104154586792 -0.8678179383277893
-13.833805084228516 -1.8070449829101562 -0.8426389098167419
-15.222595214843748 -1.7966195344924927 -0.8377774357795715
-15.414509773254395 -1.7252979278564453 -0.8045195937156677
-15.984440803527832 -1.6781587600708008 -0.7825382947921753
-16.342655181884766 -1.6011061668395996 -0.7466080784797668
-16.925561904907227 -1.5200059413909912 -0.7087904214859009
-17.072071075439453 -1.4187769889831543 -0.661586582660675
-16.92920684814453 -1.3385820388793945 -0.6241911053657532
-16.901350021362305 -1.2808436155319214 -0.5972671508789062
-16.893835067749023 -1.226789116859436 -0.5720611810684204
-16.622051239013672 -1.1981688737869263 -0.5587153434753418
-16.385387420654297 -1.192460298538208 -0.5560533404350281
-16.12226676940918 -1.180974006652832 -0.5506972670555115
-15.874005317687988 -1.173811912536621 -0.5473574995994568
-14.832509040832518 -1.131955623626709 -0.5278396010398865
-13.357087135314941 -1.2774379253387451 -0.5956790447235107
-11.403303146362305 -1.2573493719100952 -0.5863116383552551
-9.60595703125 -1.4454237222671509 -0.6740121245384216
-7.7566046714782715 -1.5222077369689941 -0.709817111492157
-6.054058074951172 -1.474823236465454 -0.6877213716506958
-4.398467063903809 -1.3517929315567017 -0.6303513646125793
-2.944204092025757 -1.2098768949508667 -0.5641748905181885
-1.3593939542770386 -1.068802833557129 -0.49839097261428833