# vtk DataFile Version 4.0
 
ASCII
DATASET UNSTRUCTURED_GRID
POINTS 51 float
0.002990470267832279 -0.0072505646385252484 0.0016762228915467858
0.002663540421053767 -0.01116461493074894 0.00033500537392683327
0.0024158067535609007 -0.015061261132359505 -0.0008318742038682103
0.0021610232070088387 -0.018840450793504715 -0.0020993149373680353
0.0018239807104691865 -0.022556832060217857 -0.0033171607647091146
0.0014375883620232344 -0.026220394298434258 -0.00445797573775053
0.0011537274112924933 -0.029740305617451668 -0.0057713184505701065
0.0011058691889047623 -0.033171068876981735 -0.007107438985258341
0.0012308575678616762 -0.03658528998494148 -0.008266852237284184
0.0014622097369283438 -0.03987761214375496 -0.009539035148918629
0.0017137653194367886 -0.04308876767754555 -0.010812065564095974
0.0019408058142289517 -0.04626084864139557 -0.011970297433435917
0.0021194086875766516 -0.04936020448803902 -0.013106188736855982
0.0022329261992126703 -0.052366577088832855 -0.014275398105382921
0.0022873322013765574 -0.05528786405920982 -0.015456226654350758
0.002315010642632842 -0.05814199522137641 -0.01659940928220749
0.0023268242366611958 -0.060940418392419815 -0.017673496156930923
0.002347409725189209 -0.06368577480316162 -0.01867123506963253
0.002370904665440321 -0.06636867672204971 -0.019618388265371323
0.002401149133220315 -0.06897785514593124 -0.020545976236462593
0.0024429464247077703 -0.07150617241859436 -0.02147355116903782
0.0024758127983659506 -0.0739521011710167 -0.0224053543061018
0.0025140612851828337 -0.0763213261961937 -0.023325737565755844
0.0025619138032197952 -0.0786198154091835 -0.02421831153333187
0.0026071176398545504 -0.08085143566131592 -0.02507244609296322
0.0026486441493034363 -0.08301909267902374 -0.025880184024572376
0.0026914223562926054 -0.0851241797208786 -0.026637658476829525
0.0027327577117830515 -0.0871659591794014 -0.02734693512320518
0.0027675682213157415 -0.08914203196763992 -0.028014574199914932
0.0027959367725998163 -0.09104907512664795 -0.028649723157286644
0.002822769805788994 -0.09288351237773895 -0.029262203723192215
0.002852949546650052 -0.09464233368635178 -0.02986027859151363
0.0028871840331703424 -0.09632361680269241 -0.030449233949184418
0.0029206497129052877 -0.09792676568031311 -0.031030705198645592
0.0029517675284296274 -0.09945286810398102 -0.03160171955823898
0.0029838785994797945 -0.10090450942516327 -0.03215516731142998
0.003018902847543359 -0.10228513926267624 -0.032681554555892944
0.0030546479392796755 -0.10359833389520647 -0.03317106142640114
0.0030884870793670416 -0.10484642535448074 -0.0336172915995121
0.0031200633384287357 -0.10602931678295135 -0.034020502120256424
0.0031490367837250233 -0.10714425891637801 -0.03438824415206909
0.003173950593918562 -0.10818641632795332 -0.034733813256025314
0.003192906267940998 -0.10914973169565201 -0.03507383540272713
0.003204090287908912 -0.11002680659294128 -0.035428669303655624
0.0032060428056865926 -0.1108086258172989 -0.035823043435811996
0.0031979666091501713 -0.11148614436388014 -0.036281850188970566
0.0031800006981939077 -0.11205260455608368 -0.03682362660765648
0.003153338097035885 -0.1125057265162468 -0.03745463117957115
0.0031201306264847517 -0.11284905672073363 -0.038165148347616196
0.003083207178860903 -0.11309220641851427 -0.038928743451833725
0.003045693039894104 -0.11325008422136307 -0.039704468101263046

CELLS 50 150
2 0 1
2 1 2
2 2 3
2 3 4
2 4 5
2 5 6
2 6 7
2 7 8
2 8 9
2 9 10
2 10 11
2 11 12
2 12 13
2 13 14
2 14 15
2 15 16
2 16 17
2 17 18
2 18 19
2 19 20
2 20 21
2 21 22
2 22 23
2 23 24
2 24 25
2 25 26
2 26 27
2 27 28
2 28 29
2 29 30
2 30 31
2 31 32
2 32 33
2 33 34
2 34 35
2 35 36
2 36 37
2 37 38
2 38 39
2 39 40
2 40 41
2 41 42
2 42 43
2 43 44
2 44 45
2 45 46
2 46 47
2 47 48
2 48 49
2 49 50

CELL_TYPES 50
4
4
4
4
4
4
4
4
4
4
4
4
4
4
4
4
4
4
4
4
4
4
4
4
4
4
4
4
4
4
4
4
4
4
4
4
4
4
4
4
4
4
4
4
4
4
4
4
4
4

POINT_DATA 51

SCALARS zone float
LOOKUP_TABLE default
1.0
1.0
1.0
1.0
1.0
1.0
1.0
1.0
1.0
1.0
1.0
1.0
1.0
1.0
1.0
1.0
1.0
1.0
1.0
1.0
1.0
1.0
1.0
1.0
1.0
1.0
1.0
1.0
1.0
1.0
1.0
1.0
1.0
1.0
1.0
1.0
1.0
1.0
1.0
1.0
1.0
1.0
1.0
1.0
1.0
1.0
1.0
1.0
1.0
1.0
1.0

VECTORS normals float
-0.00016346495249308646 -0.0019570249132812023 -0.0006706087733618915
-0.00028733181534335017 -0.003905348479747772 -0.001254048547707498
-0.0002512586652301252 -0.003837917698547244 -0.001217160141095519
-0.0002959130215458572 -0.00374778569675982 -0.0012426433386281133
-0.0003617173351813108 -0.003689972683787346 -0.0011793305166065693
-0.000335126620484516 -0.003591736545786262 -0.0012270788429304957
-0.00016585958655923605 -0.0034753370564430948 -0.0013247315073385835
3.856507100863382e-5 -0.0034224928822368383 -0.0012477668933570385
0.00017817027401179075 -0.003353271633386612 -0.0012157981982454658
0.0002414538903394714 -0.0032517379149794574 -0.001272606779821217
0.00023929805320221928 -0.003191618481650948 -0.0012156310258433223
0.00020282164041418582 -0.0031357186380773783 -0.001147061469964683
0.0001460601488361135 -0.0030528639908879995 -0.0011525503359735012
8.396180783165619e-5 -0.0029638290870934725 -0.001175018842332065
4.104220715817064e-5 -0.002887708367779851 -0.0011620060540735722
1.9746014004340395e-5 -0.002826276933774352 -0.0011086351005360484
1.6199513993342407e-5 -0.0027718888595700264 -0.0010359124280512333
2.2040156181901693e-5 -0.0027141314931213856 -0.0009724462870508432
2.6869760404224508e-5 -0.002646041102707386 -0.0009373704669997096
3.6020985135110095e-5 -0.0025687471497803926 -0.0009275811607949436
3.733187259058468e-5 -0.002487122779712081 -0.0009296895004808903
3.555733201210387e-5 -0.0024075747933238745 -0.0009260932565666735
4.305047696107067e-5 -0.0023338571190834045 -0.0009064784389920533
4.652824645745568e-5 -0.002265056362375617 -0.000873353681527078
4.336517667979933e-5 -0.002199638169258833 -0.0008309362456202507
4.2152376408921555e-5 -0.002136371796950698 -0.0007826066575944424
4.205681398161687e-5 -0.002073433483019471 -0.0007333756075240672
3.8072852476034313e-5 -0.0020089251920580864 -0.0006884575122967362
3.158946492476389e-5 -0.0019415583228692415 -0.0006513938424177468
2.760080860753078e-5 -0.001870739390142262 -0.0006238145870156586
2.850641067198012e-5 -0.0017966291634365916 -0.0006052781827747822
3.2207175536314026e-5 -0.0017200533766299486 -0.0005935155786573887
3.3850083127617836e-5 -0.0016422182088717818 -0.0005852131871506572
3.2291711249854416e-5 -0.0015646264655515552 -0.0005762420478276908
3.161442145938054e-5 -0.001488869427703321 -0.0005622300086542964
3.356763409101404e-5 -0.001416133134625852 -0.0005399187793955207
3.538468081387691e-5 -0.0013469128170982003 -0.0005079474649392068
3.4792101359926164e-5 -0.0012806435115635395 -0.00046786788152530795
3.270775778219104e-5 -0.0012154910946264863 -0.0004247200849931687
3.0274881282821298e-5 -0.0011489175958558917 -0.0003854765964206308
2.6943627744913098e-5 -0.0010785501217469573 -0.0003566568484529853
2.1934773030807264e-5 -0.0010027384851127863 -0.00034279507235623896
1.506981334387092e-5 -0.000920195656362921 -0.0003474267723504454
6.568267963302787e-6 -0.0008294469444081188 -0.0003746040165424347
-3.061904180867714e-6 -0.0007296685362234712 -0.00042659035534597933
-1.3021096492593642e-5 -0.0006219865172170103 -0.0005002915277145803
-2.2314161469694227e-5 -0.000509791832882911 -0.000586391135584563
-2.9934990379842926e-5 -0.0003982268390245736 -0.0006707606953568757
-3.506556458887644e-5 -0.00029324012575671077 -0.0007370566017925739
-3.721884422702715e-5 -0.00020051623869221655 -0.0007696606917306781
-1.8757042198558338e-5 -7.894034933997318e-5 -0.0003878622374031693

CELL_DATA 50

VECTORS liftinglineloading               float
0.09409577399492264 0.04194105789065361 -0.08994288742542267
0.11107925325632095 0.057943444699048996 -0.1242601126432419
-0.05281853303313256 0.022936901077628136 -0.049188341945409775
0.18604125082492828 0.036772824823856354 -0.07885958254337311
0.119318924844265 0.07620283216238022 -0.1634175032377243
-0.4998007118701935 0.15503980219364166 -0.3324839472770691
-1.6714551448822024 0.3180235028266907 -0.6820036172866821
-2.8743135929107666 0.45808267593383784 -0.9823614358901978
-4.075475215911865 0.5912297368049622 -1.2678961753845215
-5.496779918670654 0.7262056469917297 -1.5573530197143555
-6.858094692230225 0.8386968970298767 -1.7985912561416626
-8.255020141601562 0.9489927887916564 -2.0351216793060303
-9.227095603942871 1.0209754705429077 -2.1894888877868652
-9.797687530517578 1.043961763381958 -2.238783121109009
-10.152355194091797 1.0386075973510742 -2.2273011207580566
-10.993206977844238 1.0626137256622314 -2.278782367706299
-11.33202075958252 1.040100336074829 -2.2305023670196533
-11.983458518981934 1.0555884838104248 -2.263716697692871
-12.300891876220703 1.036686658859253 -2.22318172454834
-12.801606178283691 1.0405752658843994 -2.231520891189575
-13.014879226684572 1.0276519060134888 -2.2038066387176514
-13.428409576416016 1.0203969478607178 -2.1882483959198
-13.323044776916506 0.9632827639579773 -2.0657665729522705
-13.51135540008545 0.9436396360397338 -2.02364182472229
-13.67740249633789 0.9080976843833922 -1.9474217891693117
-13.944661140441893 0.8852115273475647 -1.898342251777649
-14.362506866455078 0.8745038509368898 -1.8753795623779297
-14.686136245727539 0.8490463495254517 -1.8207857608795166
-14.875362396240233 0.8326465487480164 -1.7856162786483762
-15.088333129882812 0.8007656335830688 -1.7172474861145017
-15.676779747009277 0.7808887362480164 -1.6746212244033813
-16.020282745361328 0.7467430830001831 -1.6013957262039185
-16.540725708007812 0.7095639705657959 -1.5216648578643799
-16.68785285949707 0.664129376411438 -1.4242299795150757
-16.51289939880371 0.6280101537704468 -1.3467720746994019
-16.446924209594727 0.6019826531410217 -1.2909560203552246
-16.48767852783203 0.5757464170455933 -1.234692096710205
-16.19451141357422 0.5627707242965698 -1.2068657875061035
-15.923345565795898 0.5596435070037842 -1.2001593112945557
-15.628401756286621 0.5539725422859192 -1.1879979372024536
-15.39051342010498 0.550435483455658 -1.180412769317627
-14.3623046875 0.5301209092140198 -1.136847972869873
-12.942745208740234 0.5938990116119385 -1.2736204862594604
-11.023695945739746 0.5817075967788696 -1.2474759817123413
-9.266758918762207 0.6648764610290527 -1.4258322715759277
-7.433923721313477 0.7000625133514404 -1.501288890838623
-5.780379295349121 0.6772100329399109 -1.4522815942764282
-4.1959404945373535 0.6209157705307007 -1.331558108329773
-2.7928335666656494 0.5552484393119812 -1.1907341480255127
-1.2810076475143433 0.4903140664100647 -1.0514819622039795