# vtk DataFile Version 4.0
 
ASCII
DATASET UNSTRUCTURED_GRID
POINTS 51 float
0.002990470267832279 -0.002909804694354534 -0.006849339231848718
0.002663540421053767 -0.0022686307784169912 -0.010936825536191463
0.0024158067535609007 -0.00179612438660115 -0.014976900070905684
0.0021610232070088387 -0.0012041882146149874 -0.01891876384615898
0.0018239807104691865 -0.0006501871976070106 -0.02279016189277172
0.0014375883620232344 -0.00016287471225950867 -0.02659616805613041
0.0011537274112924933 0.000519289227668196 -0.030290663242340084
0.0011058691889047623 0.0012393651995807886 -0.03390131890773773
0.0012308575678616762 0.0017882909160107374 -0.03746500238776207
0.0014622097369283438 0.002469441154971719 -0.04092821851372719
0.0017137653194367886 0.0031655202619731426 -0.04431164637207985
0.0019408058142289517 0.0037553294096142054 -0.04763666167855263
0.0021194086875766516 0.0043357666581869125 -0.05088617652654648
0.0022329261992126703 0.00496516190469265 -0.054049909114837646
0.0022873322013765574 0.0056207748129963875 -0.05713186040520668
0.002315010642632842 0.006250976584851742 -0.06014114245772362
0.0023268242366611958 0.0068228039890527725 -0.06308356672525406
0.002347409725189209 0.007328658830374479 -0.06596046686172485
0.002370904665440321 0.007795541547238828 -0.06876708567142487
0.002401149133220315 0.008255957625806332 -0.07149769365787506
0.0024429464247077703 0.008730403147637844 -0.07414867728948593
0.0024758127983659506 0.009223319590091705 -0.0767192468047142
0.0025140612851828337 0.00971830915659666 -0.07921230047941208
0.0025619138032197952 0.010198193602263927 -0.08163087069988251
0.0026071176398545504 0.010651834309101105 -0.08397690951824188
0.0026486441493034363 0.011070892214775085 -0.0862518921494484
0.0026914223562926054 0.011451314203441143 -0.08845653384923935
0.0027327577117830515 0.011795264668762684 -0.0905904546380043
0.0027675682213157415 0.01210961863398552 -0.09265244007110596
0.0027959367725998163 0.012403964065015316 -0.0946408063173294
0.002822769805788994 0.012688592076301576 -0.0965537279844284
0.002852949546650052 0.012972166761755943 -0.09838968515396118
0.0028871840331703424 0.013260221108794214 -0.10014770179986954
0.0029206497129052877 0.013554475270211695 -0.1018274649977684
0.0029517675284296274 0.013851807452738285 -0.10342954099178314
0.0029838785994797945 0.0141447726637125 -0.10495522618293761
0.003018902847543359 0.014423422515392303 -0.1064062863588333
0.0030546479392796755 0.014677456580102442 -0.10778453201055527
0.0030884870793670416 0.014900179579854012 -0.10909115523099899
0.0031200633384287357 0.0150918560102582 -0.11032608896493912
0.0031490367837250233 0.015260404907166958 -0.11148795485496522
0.003173950593918562 0.015419756062328817 -0.11257428675889969
0.003192906267940998 0.015587331727147102 -0.11358201503753662
0.003204090287908912 0.015784472227096558 -0.11450737714767457
0.0032060428056865926 0.016037093475461006 -0.11534580588340758
0.0031979666091501713 0.01637127995491028 -0.11609269678592682
0.0031800006981939077 0.01680646277964115 -0.11674463003873825
0.003153338097035885 0.01734919659793377 -0.11730044335126877
0.0031201306264847517 0.017989300191402435 -0.11776193231344223
0.003083207178860903 0.018699074164032936 -0.11813398450613022
0.003045693039894104 0.019435597583651543 -0.11842416971921921

CELLS 50 150
2 0 1
2 1 2
2 2 3
2 3 4
2 4 5
2 5 6
2 6 7
2 7 8
2 8 9
2 9 10
2 10 11
2 11 12
2 12 13
2 13 14
2 14 15
2 15 16
2 16 17
2 17 18
2 18 19
2 19 20
2 20 21
2 21 22
2 22 23
2 23 24
2 24 25
2 25 26
2 26 27
2 27 28
2 28 29
2 29 30
2 30 31
2 31 32
2 32 33
2 33 34
2 34 35
2 35 36
2 36 37
2 37 38
2 38 39
2 39 40
2 40 41
2 41 42
2 42 43
2 43 44
2 44 45
2 45 46
2 46 47
2 47 48
2 48 49
2 49 50

CELL_TYPES 50
4
4
4
4
4
4
4
4
4
4
4
4
4
4
4
4
4
4
4
4
4
4
4
4
4
4
4
4
4
4
4
4
4
4
4
4
4
4
4
4
4
4
4
4
4
4
4
4
4
4

POINT_DATA 51

SCALARS zone float
LOOKUP_TABLE default
1.0
1.0
1.0
1.0
1.0
1.0
1.0
1.0
1.0
1.0
1.0
1.0
1.0
1.0
1.0
1.0
1.0
1.0
1.0
1.0
1.0
1.0
1.0
1.0
1.0
1.0
1.0
1.0
1.0
1.0
1.0
1.0
1.0
1.0
1.0
1.0
1.0
1.0
1.0
1.0
1.0
1.0
1.0
1.0
1.0
1.0
1.0
1.0
1.0
1.0
1.0

VECTORS normals float
-0.00016346495249308646 0.0003205868706572801 -0.002043743385002017
-0.00028733181534335017 0.0005568400956690311 -0.004063780419528484
-0.0002512586652301252 0.0005322213401086628 -0.003990968689322472
-0.0002959130215458572 0.0005729686236009002 -0.003906630910933018
-0.0003617173351813108 0.000520656758453697 -0.0038387021049857135
-0.000335126620484516 0.0005847382126376033 -0.003750250209122896
-0.00016585958655923605 0.000701119948644191 -0.0036525761242955923
3.856507100863382e-5 0.0006345008150674403 -0.0035871700383722786
0.00017817027401179075 0.0006150379776954651 -0.003513448871672153
0.0002414538903394714 0.0006886146729812026 -0.003423322457820177
0.00023929805320221928 0.0006429441855289042 -0.003354222746565938
0.00020282164041418582 0.000585123198106885 -0.003287265310063958
0.0001460601488361135 0.0006049163057468832 -0.0032066223211586475
8.396180783165619e-5 0.0006425041356123984 -0.0031228417064994574
4.104220715817064e-5 0.0006429072236642241 -0.003045617835596204
1.9746014004340395e-5 0.0006010146462358534 -0.0029758517630398273
1.6199513993342407e-5 0.0005388411809690297 -0.0029096619691699743
2.2040156181901693e-5 0.0004863686044700444 -0.0028417613357305527
2.6869760404224508e-5 0.0004636494559235871 -0.002768614562228322
3.6020985135110095e-5 0.0004674308584071696 -0.0026907948777079582
3.733187259058468e-5 0.00048368106945417816 -0.0026107768062502146
3.555733201210387e-5 0.0004939528880640864 -0.002531812759116292
4.305047696107067e-5 0.00048743697698228067 -0.0024558089207857847
4.652824645745568e-5 0.00046676257625222206 -0.0023823014926165342
4.336517667979933e-5 0.0004363492771517486 -0.0023105114232748747
4.2152376408921555e-5 0.00039974006358534103 -0.0022398135624825954
4.205681398161687e-5 0.00036218605237081647 -0.002169282641261816
3.8072852476034313e-5 0.00032915209885686636 -0.0020979545079171658
3.158946492476389e-5 0.00030434963991865516 -0.002025175141170621
2.760080860753078e-5 0.00028948698309250176 -0.001950642908923328
2.850641067198012e-5 0.0002841012610588223 -0.0018744397675618527
3.2207175536314026e-5 0.00028581457445397973 -0.001796984812244773
3.3850083127617836e-5 0.0002911542833317071 -0.0017188905039802194
3.2291711249854416e-5 0.000295793084660545 -0.0016409197123721244
3.161442145938054e-5 0.0002951490168925375 -0.0015638804761692882
3.356763409101404e-5 0.0002858072693925351 -0.0014883747790008783
3.538468081387691e-5 0.00026634163805283606 -0.0014146543107926846
3.4792101359926164e-5 0.00023837850312702358 -0.0013424321077764034
3.270775778219104e-5 0.00020719981694128367 -0.0012707769637927413
3.0274881282821298e-5 0.00018011291103903204 -0.0011984002776443958
2.6943627744913098e-5 0.0001639501570025459 -0.001124097383581102
2.1934773030807264e-5 0.0001634635409573093 -0.0010470303241163492
1.506981334387092e-5 0.00018235828611068428 -0.000966545834671706
6.568267963302787e-6 0.00022488099057227373 -0.0008818951318971813
-3.061904180867714e-6 0.00029340386390686035 -0.0007926598191261292
-1.3021096492593642e-5 0.00038468415732495487 -0.0006994118448346853
-2.2314161469694227e-5 0.0004889580886811018 -0.0006038727005943656
-2.9934990379842926e-5 0.0005914189969189465 -0.0005086532328277826
-3.506556458887644e-5 0.0006749384920112789 -0.00041677369154058397
-3.721884422702715e-5 0.0007231485215015709 -0.00033112012897618115
-1.8757042198558338e-5 0.000368261884432286 -0.00014509263564832509

CELL_DATA 50

VECTORS liftinglineloading               float
0.06005585566163064 0.07172225415706635 0.019217921420931816
0.011567206121981144 0.03020571731030941 0.008093597367405891
0.04058058559894562 0.05923519283533096 0.01587202213704586
0.16147153079509735 0.11575622856616974 0.031016787514090538
-0.1282968372106552 0.23185758292675018 0.062126051634550095
-0.7996142506599426 0.4293559193611145 0.11504557728767395
-2.027419328689575 0.7979808449745178 0.21381831169128418
-3.154052734375 1.0958110094070435 0.29362165927886963
-4.21518087387085 1.3626072406768799 0.36510950326919556
-5.561147689819336 1.656045198440552 0.44373598694801325
-6.835722446441651 1.8990776538848877 0.5088563561439514
-8.1682710647583 2.1440176963806152 0.5744878053665161
-9.115128517150879 2.308006525039673 0.6184285283088684
-9.693696975708008 2.3648486137390137 0.633659303188324
-10.127141952514648 2.3654470443725586 0.6338196396827698
-10.999567985534668 2.4260079860687256 0.6500468850135803
-11.356036186218262 2.377049446105957 0.6369284987449646
-12.013623237609863 2.414381980895996 0.6469317078590393
-12.342470169067383 2.3728513717651367 0.6358036398887634
-12.850129127502441 2.383119821548462 0.6385550498962402
-13.056632995605469 2.3540303707122803 0.6307605504989624
-13.444652557373045 2.3367695808410645 0.626135528087616
-13.297048568725584 2.2045438289642334 0.5907057523727417
-13.42753314971924 2.157313346862793 0.5780503749847412
-13.478151321411131 2.0717782974243164 0.5551313161849976
-13.677690505981444 2.019348621368408 0.5410827994346619
-14.02418041229248 1.9937783479690552 0.5342313051223755
-14.273263931274414 1.93513560295105 0.5185180306434631
-14.408689498901367 1.8986163139343264 0.5087326765060425
-14.596122741699219 1.8286203145980835 0.4899773299694062
-15.244392395019531 1.7902313470840456 0.47969102859497076
-15.640859603881836 1.7156629562377927 0.4597105085849762
-16.184337615966797 1.6288799047470093 0.4364570677280426
-16.358190536499023 1.5298131704330444 0.40991219878196716
-16.246299743652344 1.4453364610671997 0.3872767388820648
-16.20659637451172 1.38423490524292 0.3709046244621277
-16.20807456970215 1.3239598274230957 0.3547539710998535
-15.975105285644531 1.292177677154541 0.3462379574775696
-15.740732192993166 1.2827539443969727 0.3437128961086273
-15.474008560180664 1.2684104442596436 0.33986955881118774
-15.267602920532225 1.259493350982666 0.33748024702072144
-14.261872291564943 1.2122546434402466 0.32482266426086426
-12.866225242614746 1.3560327291488647 0.3633478581905365
-10.962194442749023 1.3271898031234741 0.3556194603443146
-9.25214672088623 1.5179831981658936 0.4067423641681671
-7.418922424316406 1.5981128215789795 0.4282130599021911
-5.766411781311035 1.5456827878952026 0.41416445374488836
-4.16404390335083 1.4145457744598389 0.3790263831615448
-2.7710580825805664 1.2649774551391602 0.33894968032836914
-1.2708319425582886 1.1171914339065552 0.2993505299091339