# vtk DataFile Version 4.0
 
ASCII
DATASET UNSTRUCTURED_GRID
POINTS 51 float
0.002990470267832279 0.004977872595191002 -0.005531834438443184
0.002663540421053767 0.008953365497291088 -0.006678180303424597
0.0024158067535609007 0.012814606539905073 -0.007957353256642818
0.0021610232070088387 0.01663731038570404 -0.00908678025007248
0.0018239807104691865 0.02038012072443962 -0.010220808908343315
0.0014375883620232344 0.024035479873418808 -0.011387640610337257
0.0011537274112924933 0.027672125026583675 -0.012330750934779644
0.0011058691889047623 0.03124880790710449 -0.01320407073944807
0.0012308575678616762 0.0347105897963047 -0.014212652109563349
0.0014622097369283438 0.03813719376921654 -0.015058938413858414
0.0017137653194367886 0.04149779677391052 -0.01585797592997551
0.0019408058142289517 0.04476055130362511 -0.016728639602661133
0.0021194086875766516 0.04795091226696968 -0.017575889825820923
0.0022329261992126703 0.05108422040939331 -0.0183425135910511
0.0022873322013765574 0.054154492914676666 -0.01905081607401371
0.002315010642632842 0.05714816227555276 -0.01975143700838089
0.0023268242366611958 0.060056567192077644 -0.020476706326007843
0.002347409725189209 0.06287770718336105 -0.02123407833278179
0.002370904665440321 0.06561868637800217 -0.02199706807732582
0.002401149133220315 0.06828803569078445 -0.022733792662620544
0.0024429464247077703 0.07089114934206009 -0.02342415228486061
0.0024758127983659506 0.07342919707298279 -0.02406379021704197
0.0025140612851828337 0.07589786499738693 -0.02466878667473793
0.0025619138032197952 0.07829263061285019 -0.025255993008613586
0.0026071176398545504 0.08061058074235916 -0.025836333632469177
0.0026486441493034363 0.08284951746463776 -0.026417987421154976
0.0026914223562926054 0.08500838279724121 -0.02700493112206459
0.0027327577117830515 0.0870877280831337 -0.027595041319727898
0.0027675682213157415 0.08908937871456146 -0.028181573376059532
0.0027959367725998163 0.09101583808660507 -0.028755124658346173
0.002822769805788994 0.0928698256611824 -0.029305599629878998
0.002852949546650052 0.09465361386537552 -0.029824502766132355
0.0028871840331703424 0.09636864811182022 -0.03030640445649624
0.0029206497129052877 0.09801539033651352 -0.030749620869755745
0.0029517675284296274 0.09959302097558975 -0.031157210469245907
0.0029838785994797945 0.10109958052635193 -0.03153647854924202
0.003018902847543359 0.10253244638442993 -0.031897179782390594
0.0030546479392796755 0.10388892143964767 -0.03224942088127136
0.0030884870793670416 0.10516724735498428 -0.03259976580739021
0.0031200633384287357 0.10636749118566513 -0.032947953790426254
0.0031490367837250233 0.10749172419309617 -0.03328622132539749
0.003173950593918562 0.10854361951351166 -0.033600904047489166
0.003192906267940998 0.10952775180339813 -0.033874914050102234
0.003204090287908912 0.11044973134994507 -0.03408731892704964
0.0032060428056865926 0.11131636798381805 -0.03421270102262497
0.0031979666091501713 0.11213451623916626 -0.034225475043058395
0.0031800006981939077 0.11290927976369858 -0.03410658240318298
0.003153338097035885 0.1136423870921135 -0.03384959697723389
0.0031201306264847517 0.11433116346597672 -0.033464498817920685
0.003083207178860903 0.11496832221746445 -0.03297846391797066
0.003045693039894104 0.11554259061813356 -0.032433584332466125

CELLS 50 150
2 0 1
2 1 2
2 2 3
2 3 4
2 4 5
2 5 6
2 6 7
2 7 8
2 8 9
2 9 10
2 10 11
2 11 12
2 12 13
2 13 14
2 14 15
2 15 16
2 16 17
2 17 18
2 18 19
2 19 20
2 20 21
2 21 22
2 22 23
2 23 24
2 24 25
2 25 26
2 26 27
2 27 28
2 28 29
2 29 30
2 30 31
2 31 32
2 32 33
2 33 34
2 34 35
2 35 36
2 36 37
2 37 38
2 38 39
2 39 40
2 40 41
2 41 42
2 42 43
2 43 44
2 44 45
2 45 46
2 46 47
2 47 48
2 48 49
2 49 50

CELL_TYPES 50
4
4
4
4
4
4
4
4
4
4
4
4
4
4
4
4
4
4
4
4
4
4
4
4
4
4
4
4
4
4
4
4
4
4
4
4
4
4
4
4
4
4
4
4
4
4
4
4
4
4

POINT_DATA 51

SCALARS zone float
LOOKUP_TABLE default
1.0
1.0
1.0
1.0
1.0
1.0
1.0
1.0
1.0
1.0
1.0
1.0
1.0
1.0
1.0
1.0
1.0
1.0
1.0
1.0
1.0
1.0
1.0
1.0
1.0
1.0
1.0
1.0
1.0
1.0
1.0
1.0
1.0
1.0
1.0
1.0
1.0
1.0
1.0
1.0
1.0
1.0
1.0
1.0
1.0
1.0
1.0
1.0
1.0
1.0
1.0

VECTORS normals float
-0.00016346495249308646 0.001987746451050043 -0.0005731728742830455
-0.00028733181534335017 0.003918366972357035 -0.0012127594090998173
-0.0002512586652301252 0.003841972444206476 -0.0012042999733239412
-0.0002959130215458572 0.0037827570922672753 -0.0011317277094349265
-0.0003617173351813108 0.0036990847438573837 -0.0011504304129630327
-0.000335126620484516 0.0036460019182413816 -0.00105497136246413
-0.00016585958655923605 0.0036066642496734853 -0.0009082148899324238
3.856507100863382e-5 0.0035192316863685846 -0.0009409504709765315
0.00017817027401179075 0.0034441924653947353 -0.0009274340118281542
0.0002414538903394714 0.003393605118617416 -0.0008226617937907577
0.00023929805320221928 0.0033116780687123537 -0.0008348504779860378
0.00020282164041418582 0.0032265577465295787 -0.0008589565986767411
0.0001460601488361135 0.0031618354842066765 -0.0008069368195720017
8.396180783165619e-5 0.0031017898581922054 -0.0007374634733423591
4.104220715817064e-5 0.0030319716315716505 -0.0007044618832878768
1.9746014004340395e-5 0.002951037371531129 -0.0007129450677894056
1.6199513993342407e-5 0.0028647733852267265 -0.0007413202547468245
2.2040156181901693e-5 0.0027810586616396904 -0.0007601805846206844
2.6869760404224508e-5 0.0027051635552197695 -0.0007498579216189682
3.6020985135110095e-5 0.0026362331118434668 -0.0007135428604669869
3.733187259058468e-5 0.0025705797597765923 -0.0006649980205111206
3.555733201210387e-5 0.002503355033695698 -0.000622316962108016
4.305047696107067e-5 0.002431718399748206 -0.000596101745031774
4.652824645745568e-5 0.0023563606664538383 -0.0005837735370732844
4.336517667979933e-5 0.0022784436587244272 -0.0005809975555166602
4.2152376408921555e-5 0.0021988980006426573 -0.0005842986283823848
4.205681398161687e-5 0.0021191041450947523 -0.0005885264254175127
3.8072852476034313e-5 0.0020404981914907694 -0.0005883208359591663
3.158946492476389e-5 0.0019640557002276182 -0.0005800414946861565
2.760080860753078e-5 0.00189022533595562 -0.000562013010494411
2.850641067198012e-5 0.0018188856774941085 -0.000534689286723733
3.2207175536314026e-5 0.0017494118073955178 -0.0005004026461392641
3.3850083127617836e-5 0.001680890913121402 -0.00046255911001935607
3.2291711249854416e-5 0.0016121858498081565 -0.0004254030354786664
3.161442145938054e-5 0.0015420924173668027 -0.00039342857780866325
3.356763409101404e-5 0.0014697130536660552 -0.0003699850058183074
3.538468081387691e-5 0.0013946730177849531 -0.00035647122422233224
3.4792101359926164e-5 0.001317399786785245 -0.00035129202296957374
3.270775778219104e-5 0.001239281496964395 -0.0003492667165119201
3.0274881282821298e-5 0.0011622384190559387 -0.0003432281082496047
2.6943627744913098e-5 0.0010880664922297 -0.0003264747792854905
2.1934773030807264e-5 0.0010180143872275949 -0.00029434586758725345
1.506981334387092e-5 0.0009530559764243662 -0.00024320717784576115
6.568267963302787e-6 0.0008943072170950472 -0.00016889357357285917
-3.061904180867714e-6 0.000842391629703343 -6.907831266289577e-5
-1.3021096492593642e-5 0.0007964569376781583 5.305804734234698e-5
-2.2314161469694227e-5 0.000753937172703445 0.0001879389164969325
-2.9934990379842926e-5 0.0007109408616088331 0.0003210415015928447
-3.506556458887644e-5 0.0006629665731452405 0.0004355658311396838
-3.721884422702715e-5 0.0006057125283405185 0.000515457708388567
-1.8757042198558338e-5 0.000287132803350687 0.0002724398218560964

CELL_DATA 50

VECTORS liftinglineloading               float
0.07757799327373505 0.015062903985381126 0.0854259729385376
0.06478674709796906 0.015928564593195915 0.09033537656068802
-0.01281676720827818 0.00981156062334776 0.05564412847161293
0.20500433444976807 0.01679491251707077 0.09524867683649063
-0.02774760313332081 0.037664808332920074 0.2136077284812927
-0.6962071061134338 0.07264401018619537 0.4119846522808075
-1.9616718292236328 0.14164933562278748 0.8033333420753479
-3.194476842880249 0.19933868944644928 1.130505919456482
-4.361246585845947 0.25041845440864563 1.4201936721801758
-5.8042683601379395 0.305536150932312 1.732781648635864
-7.189768314361573 0.3510500192642212 1.9909034967422483
-8.584490776062012 0.3957690894603729 2.2445180416107178
-9.547565460205078 0.4243880808353424 2.4068243503570557
-10.090246200561523 0.43315422534942627 2.4565396308898926
-10.48582649230957 0.43239629268646246 2.4522411823272705
-11.271530151367188 0.44070416688919073 2.4993574619293213
-11.612340927124023 0.4308824837207794 2.4436559677124023
-12.23903751373291 0.43656313419342035 2.47587251663208
-12.536643981933594 0.4277091324329376 2.425658941268921
-13.018518447875978 0.42876806855201716 2.43166446685791
-13.209410667419434 0.42313307523727417 2.3997068405151367
-13.591209411621094 0.41987475752830505 2.38122820854187
-13.435317039489746 0.39596036076545715 2.24560284614563
-13.574643135070803 0.3875419497489929 2.197859525680542
-13.648317337036133 0.371979683637619 2.1096014976501465
-13.867938041687012 0.36241164803504944 2.0553386211395264
-14.245560646057129 0.3579324781894684 2.0299360752105713
-14.657153129577637 0.347797155380249 1.9724557399749756
-14.850414276123049 0.3411026895046234 1.9344894886016848
-15.080250740051268 0.32805877923965454 1.860513687133789
-15.688266754150392 0.31979700922966003 1.8136589527130127
-16.057079315185547 0.305619478225708 1.7332541942596438
-16.614280700683594 0.2903197109699249 1.6464848518371584
-16.7838134765625 0.27152350544929504 1.5398863554000854
-16.626829147338867 0.25655028223991394 1.454969048500061
-16.575820922851562 0.24579514563083651 1.3939735889434814
-16.54632568359375 0.23552100360393524 1.3357059955596924
-16.270355224609375 0.23013928532600403 1.3051847219467163
-16.01746940612793 0.22890743613243103 1.2981985807418823
-15.73863410949707 0.2266246527433395 1.285252332687378
-15.502910614013672 0.2252018302679062 1.2771830558776855
-14.4774808883667 0.21697638928890225 1.2305341958999634
-13.04639530181885 0.24367940425872803 1.3819745779037476
-11.123531341552734 0.23909695446491241 1.35598623752594
-9.359905242919922 0.27390217781066895 1.5533764362335205
-7.529302597045898 0.28848862648010254 1.6361004114151
-5.865435600280762 0.2793075442314148 1.5840318202972412
-4.249257564544678 0.25586920976638794 1.4511064291000366
-2.8372950553894043 0.22898775339126587 1.2986540794372559
-1.3062381744384766 0.20233726501464844 1.147511601448059