# vtk DataFile Version 4.0
 
ASCII
DATASET UNSTRUCTURED_GRID
POINTS 51 float
0.002990470267832279 0.006849339231848718 -0.002909804694354534
0.002663540421053767 0.010936825536191463 -0.0022686307784169912
0.0024158067535609007 0.014976900070905684 -0.00179612438660115
0.0021610232070088387 0.01891876384615898 -0.0012041882146149874
0.0018239807104691865 0.02279016189277172 -0.0006501871976070106
0.0014375883620232344 0.02659616805613041 -0.00016287471225950867
0.0011537274112924933 0.030290663242340084 0.000519289227668196
0.0011058691889047623 0.03390131890773773 0.0012393651995807886
0.0012308575678616762 0.03746500238776207 0.0017882909160107374
0.0014622097369283438 0.04092821851372719 0.002469441154971719
0.0017137653194367886 0.04431164637207985 0.0031655202619731426
0.0019408058142289517 0.04763666167855263 0.0037553294096142054
0.0021194086875766516 0.05088617652654648 0.0043357666581869125
0.0022329261992126703 0.054049909114837646 0.00496516190469265
0.0022873322013765574 0.05713186040520668 0.0056207748129963875
0.002315010642632842 0.06014114245772362 0.006250976584851742
0.0023268242366611958 0.06308356672525406 0.0068228039890527725
0.002347409725189209 0.06596046686172485 0.007328658830374479
0.002370904665440321 0.06876708567142487 0.007795541547238828
0.002401149133220315 0.07149769365787506 0.008255957625806332
0.0024429464247077703 0.07414867728948593 0.008730403147637844
0.0024758127983659506 0.0767192468047142 0.009223319590091705
0.0025140612851828337 0.07921230047941208 0.00971830915659666
0.0025619138032197952 0.08163087069988251 0.010198193602263927
0.0026071176398545504 0.08397690951824188 0.010651834309101105
0.0026486441493034363 0.0862518921494484 0.011070892214775085
0.0026914223562926054 0.08845653384923935 0.011451314203441143
0.0027327577117830515 0.0905904546380043 0.011795264668762684
0.0027675682213157415 0.09265244007110596 0.01210961863398552
0.0027959367725998163 0.0946408063173294 0.012403964065015316
0.002822769805788994 0.0965537279844284 0.012688592076301576
0.002852949546650052 0.09838968515396118 0.012972166761755943
0.0028871840331703424 0.10014770179986954 0.013260221108794214
0.0029206497129052877 0.1018274649977684 0.013554475270211695
0.0029517675284296274 0.10342954099178314 0.013851807452738285
0.0029838785994797945 0.10495522618293761 0.0141447726637125
0.003018902847543359 0.1064062863588333 0.014423422515392303
0.0030546479392796755 0.10778453201055527 0.014677456580102442
0.0030884870793670416 0.10909115523099899 0.014900179579854012
0.0031200633384287357 0.11032608896493912 0.0150918560102582
0.0031490367837250233 0.11148795485496522 0.015260404907166958
0.003173950593918562 0.11257428675889969 0.015419756062328817
0.003192906267940998 0.11358201503753662 0.015587331727147102
0.003204090287908912 0.11450737714767457 0.015784472227096558
0.0032060428056865926 0.11534580588340758 0.016037093475461006
0.0031979666091501713 0.11609269678592682 0.01637127995491028
0.0031800006981939077 0.11674463003873825 0.01680646277964115
0.003153338097035885 0.11730044335126877 0.01734919659793377
0.0031201306264847517 0.11776193231344223 0.017989300191402435
0.003083207178860903 0.11813398450613022 0.018699074164032936
0.003045693039894104 0.11842416971921921 0.019435597583651543

CELLS 50 150
2 0 1
2 1 2
2 2 3
2 3 4
2 4 5
2 5 6
2 6 7
2 7 8
2 8 9
2 9 10
2 10 11
2 11 12
2 12 13
2 13 14
2 14 15
2 15 16
2 16 17
2 17 18
2 18 19
2 19 20
2 20 21
2 21 22
2 22 23
2 23 24
2 24 25
2 25 26
2 26 27
2 27 28
2 28 29
2 29 30
2 30 31
2 31 32
2 32 33
2 33 34
2 34 35
2 35 36
2 36 37
2 37 38
2 38 39
2 39 40
2 40 41
2 41 42
2 42 43
2 43 44
2 44 45
2 45 46
2 46 47
2 47 48
2 48 49
2 49 50

CELL_TYPES 50
4
4
4
4
4
4
4
4
4
4
4
4
4
4
4
4
4
4
4
4
4
4
4
4
4
4
4
4
4
4
4
4
4
4
4
4
4
4
4
4
4
4
4
4
4
4
4
4
4
4

POINT_DATA 51

SCALARS zone float
LOOKUP_TABLE default
1.0
1.0
1.0
1.0
1.0
1.0
1.0
1.0
1.0
1.0
1.0
1.0
1.0
1.0
1.0
1.0
1.0
1.0
1.0
1.0
1.0
1.0
1.0
1.0
1.0
1.0
1.0
1.0
1.0
1.0
1.0
1.0
1.0
1.0
1.0
1.0
1.0
1.0
1.0
1.0
1.0
1.0
1.0
1.0
1.0
1.0
1.0
1.0
1.0
1.0
1.0

VECTORS normals float
-0.00016346495249308646 0.002043743385002017 0.0003205868706572801
-0.00028733181534335017 0.004063780419528484 0.0005568400956690311
-0.0002512586652301252 0.003990968689322472 0.0005322213401086628
-0.0002959130215458572 0.003906630910933018 0.0005729686236009002
-0.0003617173351813108 0.0038387021049857135 0.000520656758453697
-0.000335126620484516 0.003750250209122896 0.0005847382126376033
-0.00016585958655923605 0.0036525761242955923 0.000701119948644191
3.856507100863382e-5 0.0035871700383722786 0.0006345008150674403
0.00017817027401179075 0.003513448871672153 0.0006150379776954651
0.0002414538903394714 0.003423322457820177 0.0006886146729812026
0.00023929805320221928 0.003354222746565938 0.0006429441855289042
0.00020282164041418582 0.003287265310063958 0.000585123198106885
0.0001460601488361135 0.0032066223211586475 0.0006049163057468832
8.396180783165619e-5 0.0031228417064994574 0.0006425041356123984
4.104220715817064e-5 0.003045617835596204 0.0006429072236642241
1.9746014004340395e-5 0.0029758517630398273 0.0006010146462358534
1.6199513993342407e-5 0.0029096619691699743 0.0005388411809690297
2.2040156181901693e-5 0.0028417613357305527 0.0004863686044700444
2.6869760404224508e-5 0.002768614562228322 0.0004636494559235871
3.6020985135110095e-5 0.0026907948777079582 0.0004674308584071696
3.733187259058468e-5 0.0026107768062502146 0.00048368106945417816
3.555733201210387e-5 0.002531812759116292 0.0004939528880640864
4.305047696107067e-5 0.0024558089207857847 0.00048743697698228067
4.652824645745568e-5 0.0023823014926165342 0.00046676257625222206
4.336517667979933e-5 0.0023105114232748747 0.0004363492771517486
4.2152376408921555e-5 0.0022398135624825954 0.00039974006358534103
4.205681398161687e-5 0.002169282641261816 0.00036218605237081647
3.8072852476034313e-5 0.0020979545079171658 0.00032915209885686636
3.158946492476389e-5 0.002025175141170621 0.00030434963991865516
2.760080860753078e-5 0.001950642908923328 0.00028948698309250176
2.850641067198012e-5 0.0018744397675618527 0.0002841012610588223
3.2207175536314026e-5 0.001796984812244773 0.00028581457445397973
3.3850083127617836e-5 0.0017188905039802194 0.0002911542833317071
3.2291711249854416e-5 0.0016409197123721244 0.000295793084660545
3.161442145938054e-5 0.0015638804761692882 0.0002951490168925375
3.356763409101404e-5 0.0014883747790008783 0.0002858072693925351
3.538468081387691e-5 0.0014146543107926846 0.00026634163805283606
3.4792101359926164e-5 0.0013424321077764034 0.00023837850312702358
3.270775778219104e-5 0.0012707769637927413 0.00020719981694128367
3.0274881282821298e-5 0.0011984002776443958 0.00018011291103903204
2.6943627744913098e-5 0.001124097383581102 0.0001639501570025459
2.1934773030807264e-5 0.0010470303241163492 0.0001634635409573093
1.506981334387092e-5 0.000966545834671706 0.00018235828611068428
6.568267963302787e-6 0.0008818951318971813 0.00022488099057227373
-3.061904180867714e-6 0.0007926598191261292 0.00029340386390686035
-1.3021096492593642e-5 0.0006994118448346853 0.00038468415732495487
-2.2314161469694227e-5 0.0006038727005943656 0.0004889580886811018
-2.9934990379842926e-5 0.0005086532328277826 0.0005914189969189465
-3.506556458887644e-5 0.00041677369154058397 0.0006749384920112789
-3.721884422702715e-5 0.00033112012897618115 0.0007231485215015709
-1.8757042198558338e-5 0.00014509263564832509 0.000368261884432286

CELL_DATA 50

VECTORS liftinglineloading               float
0.0889476016163826 -0.024687107652425766 0.0921335443854332
0.09508908540010452 -0.03158864378929138 0.11789042502641678
-0.04203467443585396 -0.014354156330227852 0.05357043817639351
0.1980348378419876 -0.022995349019765854 0.08581981062889099
0.07154856622219086 -0.04996195808053017 0.18646056950092316
-0.564609169960022 -0.09945706278085709 0.3711788058280945
-1.766353964805603 -0.20040839910507202 0.7479342818260193
-2.98130464553833 -0.2864609658718109 1.0690869092941284
-4.172191143035889 -0.3662748336791992 1.3669562339782715
-5.610747337341309 -0.44914388656616205 1.6762278079986572
-6.974911689758301 -0.5173804759979248 1.9308903217315674
-8.36837387084961 -0.5845191478729248 2.181455135345459
-9.33778190612793 -0.6281264424324036 2.3441998958587646
-9.902400970458984 -0.6418978571891785 2.3955955505371094
-10.315474510192871 -0.6407921314239502 2.3914687633514404
-11.150226593017578 -0.6548958420753479 2.4441044330596924
-11.475378036499023 -0.6401000618934631 2.388885974884033
-12.107109069824219 -0.6488933563232422 2.4217028617858887
-12.417799949645996 -0.6366056799888611 2.375844717025757
-12.919414520263672 -0.6387583017349243 2.383878469467163
-13.135245323181152 -0.63077312707901 2.3540773391723633
-13.547761917114258 -0.6262872219085693 2.3373358249664307
-13.427037239074709 -0.5910027623176575 2.2056522369384766
-13.544631004333496 -0.5779829621315002 2.157061815261841
-13.660082817077637 -0.5552954077720642 2.0723907947540283
-13.91929817199707 -0.5412942171096802 2.020137310028076
-14.335907936096191 -0.5347883701324463 1.9958572387695312
-14.662408828735352 -0.5192770957946777 1.9379684925079348
-14.85396480560303 -0.509189248085022 1.900320053100586
-15.074746131896973 -0.48972842097282404 1.8276913166046143
-15.672206878662108 -0.4775504171848297 1.7822424173355103
-16.02858543395996 -0.4565893709659577 1.704014778137207
-16.56979751586914 -0.43380954861640936 1.6189992427825928
-16.777667999267578 -0.40573176741600037 1.514211654663086
-16.609636306762695 -0.3834632635116577 1.431104302406311
-16.549903869628906 -0.3674526512622833 1.371351957321167
-16.51496696472168 -0.35207414627075195 1.3139586448669434
-16.238813400268555 -0.34400713443756104 1.2838521003723145
-15.98486804962158 -0.3420688509941101 1.2766183614730835
-15.706328392028807 -0.3385857939720154 1.2636194229125977
-15.520174026489258 -0.33620738983154297 1.2547430992126465
-14.480179786682129 -0.3239590525627136 1.209031581878662
-13.041299819946289 -0.363686203956604 1.3572953939437866
-11.11224365234375 -0.3566899299621582 1.331184983253479
-9.345653533935547 -0.40836101770401 1.5240240097045898
-7.511148929595946 -0.43004027009010315 1.604932188987732
-5.847616672515869 -0.41623967885971075 1.5534276962280273
-4.23280668258667 -0.38120996952056885 1.4226949214935303
-2.8238353729248047 -0.3410920798778534 1.2729729413986206
-1.2987538576126099 -0.3013512194156647 1.1246581077575684