# vtk DataFile Version 4.0
 
ASCII
DATASET UNSTRUCTURED_GRID
POINTS 51 float
0.002990470267832279 -0.0034956911113113165 -0.006569669116288423
0.002663540421053767 -0.0032132051419466734 -0.010697484016418457
0.0024158067535609007 -0.0030946123879402876 -0.014763366430997849
0.0021610232070088387 -0.0028484847862273455 -0.018741820007562637
0.0018239807104691865 -0.002634006552398205 -0.022646771743893623
0.0014375883620232344 -0.002480263588950038 -0.026480766013264656
0.0011537274112924933 -0.0021226920653134584 -0.030220655724406242
0.0011058691889047623 -0.0017200456932187083 -0.033880334347486496
0.0012308575678616762 -0.001483804197050631 -0.03747829794883728
0.0014622097369283438 -0.0011070851469412446 -0.04098770022392273
0.0017137653194367886 -0.0007085400866344571 -0.04441892355680466
0.0019408058142289517 -0.0004107695131096989 -0.047782689332962036
0.0021194086875766516 -0.00011575497046578674 -0.051070429384708405
0.0022329261992126703 0.0002355081815039739 -0.054276973009109504
0.0022873322013765574 0.0006200162461027503 -0.05740433931350708
0.002315010642632842 0.0009855435928329825 -0.06045709550380707
0.0023268242366611958 0.0012987463269382715 -0.06343816220760345
0.002347409725189209 0.0015519375447183847 -0.06634820252656937
0.002370904665440321 0.001772430376149714 -0.06918483227491379
0.002401149133220315 0.001993106445297599 -0.0719451829791069
0.0024429464247077703 0.00223469827324152 -0.07462742179632187
0.0024758127983659506 0.0025016991421580315 -0.07723117619752884
0.0025140612851828337 0.002777520567178726 -0.07975788414478302
0.0025619138032197952 0.0030447877943515778 -0.08220906555652618
0.0026071176398545504 0.0032922308892011642 -0.08458571881055832
0.0026486441493034363 0.003511416725814342 -0.08688856661319733
0.0026914223562926054 0.003698243526741862 -0.08911797404289246
0.0027327577117830515 0.0038549015298485756 -0.09127375483512878
0.0027675682213157415 0.00398834515362978 -0.09335529804229736
0.0027959367725998163 0.004108273424208164 -0.09536174684762955
0.002822769805788994 0.004225096199661493 -0.09729219973087311
0.002852949546650052 0.004347577225416899 -0.09914588183164597
0.0028871840331703424 0.0044813151471316814 -0.10092230886220932
0.0029206497129052877 0.004628047347068787 -0.10262133181095123
0.0029517675284296274 0.004784618970006704 -0.10424321889877318
0.0029838785994797945 0.004943497013300657 -0.10578864067792892
0.003018902847543359 0.005094617605209351 -0.10725846141576768
0.0030546479392796755 0.0052275629714131355 -0.10865360498428343
0.0030884870793670416 0.005335559137165546 -0.10997465997934341
0.0031200633384287357 0.0054188743233680725 -0.11122160404920578
0.0031490367837250233 0.005485519301146269 -0.11239373683929443
0.003173950593918562 0.005549584049731493 -0.1134898215532303
0.003192906267940998 0.005628692917525768 -0.11450832337141037
0.003204090287908912 0.0057444325648248196 -0.11544734984636308
0.0032060428056865926 0.005923018790781498 -0.11630459874868393
0.0031979666091501713 0.006190837826579809 -0.1170777752995491
0.0031800006981939077 0.006567543838173152 -0.1177651584148407
0.003153338097035885 0.0070597706362605095 -0.11836615949869156
0.0031201306264847517 0.007657216861844063 -0.11888168752193451
0.003083207178860903 0.008331862278282642 -0.11931418627500534
0.003045693039894104 0.009040292352437973 -0.11966745555400848

CELLS 50 150
2 0 1
2 1 2
2 2 3
2 3 4
2 4 5
2 5 6
2 6 7
2 7 8
2 8 9
2 9 10
2 10 11
2 11 12
2 12 13
2 13 14
2 14 15
2 15 16
2 16 17
2 17 18
2 18 19
2 19 20
2 20 21
2 21 22
2 22 23
2 23 24
2 24 25
2 25 26
2 26 27
2 27 28
2 28 29
2 29 30
2 30 31
2 31 32
2 32 33
2 33 34
2 34 35
2 35 36
2 36 37
2 37 38
2 38 39
2 39 40
2 40 41
2 41 42
2 42 43
2 43 44
2 44 45
2 45 46
2 46 47
2 47 48
2 48 49
2 49 50

CELL_TYPES 50
4
4
4
4
4
4
4
4
4
4
4
4
4
4
4
4
4
4
4
4
4
4
4
4
4
4
4
4
4
4
4
4
4
4
4
4
4
4
4
4
4
4
4
4
4
4
4
4
4
4

POINT_DATA 51

SCALARS zone float
LOOKUP_TABLE default
1.0
1.0
1.0
1.0
1.0
1.0
1.0
1.0
1.0
1.0
1.0
1.0
1.0
1.0
1.0
1.0
1.0
1.0
1.0
1.0
1.0
1.0
1.0
1.0
1.0
1.0
1.0
1.0
1.0
1.0
1.0
1.0
1.0
1.0
1.0
1.0
1.0
1.0
1.0
1.0
1.0
1.0
1.0
1.0
1.0
1.0
1.0
1.0
1.0
1.0
1.0

VECTORS normals float
-0.00016346495249308646 0.00014124298468232155 -0.002063907217234373
-0.00028733181534335017 0.000200539332581684 -0.004096848424524069
-0.0002512586652301252 0.00018236020696349442 -0.00402216799557209
-0.0002959130215458572 0.0002303029759787023 -0.003941702656447887
-0.0003617173351813108 0.0001841105695348233 -0.00386947300285101
-0.000335126620484516 0.00025565727264620364 -0.003786942455917597
-0.00016585958655923605 0.0003801089769694954 -0.003699783468618989
3.856507100863382e-5 0.00031944390502758324 -0.0036288201808929443
0.00017817027401179075 0.0003064803022425622 -0.003553683403879404
0.0002414538903394714 0.00038763205520808697 -0.0034703125711530447
0.00023929805320221928 0.0003481578023638576 -0.0033974950201809406
0.00020282164041418582 0.0002963925653602928 -0.0033257531467825174
0.0001460601488361135 0.0003231388400308788 -0.0032471420709043746
8.396180783165619e-5 0.0003678856010083109 -0.0031669563613831997
4.104220715817064e-5 0.00037501766928471625 -0.003090061480179429
1.9746014004340395e-5 0.0003393650404177606 -0.003016909584403038
1.6199513993342407e-5 0.00028319700504653156 -0.0029455528128892183
2.2040156181901693e-5 0.00023684201005380598 -0.002873337361961603
2.6869760404224508e-5 0.0002205844793934375 -0.0027984888292849064
3.6020985135110095e-5 0.00023113390489015728 -0.002721294993534684
3.733187259058468e-5 0.00025429631932638586 -0.0026429975405335426
3.555733201210387e-5 0.00027141120517626405 -0.0025652293115854263
4.305047696107067e-5 0.00027154426788911223 -0.0024889467749744654
4.652824645745568e-5 0.00025735513190738857 -0.002413917100057006
4.336517667979933e-5 0.00023331449483521285 -0.002339749364182353
4.2152376408921555e-5 0.0002030063042184338 -0.0022661301773041487
4.205681398161687e-5 0.00017174240201711655 -0.0021925943437963724
3.8072852476034313e-5 0.0001450507843401283 -0.0021186587400734425
3.158946492476389e-5 0.00012668587442021817 -0.0020439946092665195
2.760080860753078e-5 0.00011837566125905141 -0.0019684506114572287
2.850641067198012e-5 0.00011965198791585863 -0.0018920679576694965
3.2207175536314026e-5 0.00012810941552743316 -0.0018150571268051863
3.3850083127617836e-5 0.00014023517724126577 -0.0017377253388985991
3.2291711249854416e-5 0.0001516519405413419 -0.0016604556003585458
3.161442145938054e-5 0.00015772473125252873 -0.0015836532693356276
3.356763409101404e-5 0.00015499928849749267 -0.0015076207928359509
3.538468081387691e-5 0.00014203287719283253 -0.0014324842486530542
3.4792101359926164e-5 0.00012047072959830984 -0.0013580997474491596
3.270775778219104e-5 9.565585787640885e-5 -0.0012839998817071319
3.0274881282821298e-5 7.498006016248837e-5 -0.0012095378478989005
2.6943627744913098e-5 6.535473221447319e-5 -0.0011341089848428965
2.1934773030807264e-5 7.15868009137921e-5 -0.0010572928003966808
1.506981334387092e-5 9.742433758219704e-5 -0.0009787613525986671
6.568267963302787e-6 0.0001471630239393562 -0.000898138910997659
-3.061904180867714e-6 0.00022320252901408819 -0.0008152153459377586
-1.3021096492593642e-5 0.00032226258190348744 -0.0007302777958102524
-2.2314161469694227e-5 0.00043446649215184147 -0.0006441902951337397
-2.9934990379842926e-5 0.0005448363954201341 -0.0005582632147707045
-3.506556458887644e-5 0.0006360458792187274 -0.0004740124859381467
-3.721884422702715e-5 0.0006915376870892942 -0.0003928866353817284
-1.8757042198558338e-5 0.00035421489155851305 -0.0001766366622177884

CELL_DATA 50

VECTORS liftinglineloading               float
0.05948586016893387 0.07278087735176086 0.012833232060074806
0.008801436051726341 0.027823813259601593 0.004906089045107365
0.042999088764190674 0.061016868799924844 0.010758919641375542
0.15782593190670013 0.11962144821882248 0.021092489361763
-0.13298816978931427 0.23776564002037048 0.04192449897527695
-0.7656513452529907 0.4278261065483093 0.0754372850060463
-1.9459413290023804 0.7946784496307373 0.14012324810028076
-3.0187714099884033 1.0877230167388916 0.19179490208625793
-4.033845901489258 1.355102777481079 0.2389411926269531
-5.539313793182373 1.683878779411316 0.2969132661819458
-6.810394763946533 1.931775689125061 0.3406241536140442
-8.1280517578125 2.1798458099365234 0.38436564803123474
-9.049787521362305 2.3445208072662354 0.413402259349823
-9.600541114807129 2.3998260498046875 0.4231540858745575
-9.997092247009277 2.3962173461914062 0.4225177466869354
-10.842153549194336 2.4569568634033203 0.43322777748107905
-11.353002548217773 2.423487424850464 0.4273262321949005
-12.007813453674316 2.4616641998291016 0.4340578019618988
-12.322629928588867 2.418748617172241 0.42649066448211664
-12.813454627990723 2.4285740852355957 0.42822313308715826
-13.00669574737549 2.39844012260437 0.422909677028656
-13.389855384826662 2.380666732788086 0.4197757542133331
-13.252238273620605 2.2465174198150635 0.396121621131897
-13.353112220764158 2.1960957050323486 0.38723090291023254
-13.444031715393068 2.1112658977508545 0.37227314710617065
-13.66085433959961 2.058685779571533 0.36300185322761536
-14.007436752319338 2.0327820777893066 0.3584343194961548
-14.24120807647705 1.9728374481201172 0.3478644788265228
-14.45894241333008 1.9369971752166748 0.34154486656188965
-14.65772533416748 1.8655387163162231 0.3289448022842407
-15.300971031188967 1.8255113363265991 0.32188689708709717
-15.692395210266112 1.74892783164978 0.30838316679000854
-16.23401641845703 1.6605143547058105 0.29279348254203796
-16.399967193603516 1.5590530633926392 0.2749031186103821
-16.257427215576172 1.4736024141311646 0.2598358690738678
-16.234050750732422 1.4108372926712036 0.2487686723470688
-16.229734420776367 1.349652647972107 0.23798017203807828
-15.990354537963865 1.3174455165863037 0.23230120539665225
-15.750575065612791 1.308037519454956 0.23064230382442474
-15.478549003601074 1.293547511100769 0.2280873358249664
-15.26729202270508 1.2845566272735596 0.22650198638439178
-14.25721263885498 1.236438512802124 0.21801745891571042
-12.858959197998047 1.3828675746917725 0.24383686482906342
-10.952502250671387 1.3531886339187622 0.23860368132591248
-9.206037521362305 1.5448896884918213 0.272405743598938
-7.377614021301269 1.62651789188385 0.28679898381233215
-5.733270645141602 1.5728853940963745 0.27734214067459106
-4.138143062591553 1.4392122030258179 0.25377193093299866
-2.75258731842041 1.2869460582733154 0.2269233018159866
-1.2617449760437012 1.1366016864776611 0.2004135400056839