# vtk DataFile Version 4.0
 
ASCII
DATASET UNSTRUCTURED_GRID
POINTS 51 float
0.002990470267832279 -0.00631219195201993 -0.003941654693335295
0.002663540421053767 -0.008131459355354309 -0.007657689973711967
0.0024158067535609007 -0.010061696171760559 -0.011238143779337406
0.0021610232070088387 -0.011837770231068134 -0.014806649647653103
0.0018239807104691865 -0.013604502193629742 -0.01829567551612854
0.0014375883620232344 -0.015388354659080504 -0.021692883223295212
0.0011537274112924933 -0.016948632895946503 -0.025110511109232903
0.0011058691889047623 -0.018429769203066826 -0.02848120592534542
0.0012308575678616762 -0.02002415992319584 -0.03171525523066521
0.0014622097369283438 -0.021452613174915314 -0.03494284674525261
0.0017137653194367886 -0.022823074832558632 -0.03811364620923996
0.0019408058142289517 -0.024247081950306892 -0.041175637394189835
0.0021194086875766516 -0.025635460391640663 -0.04417040944099426
0.0022329261992126703 -0.026934530586004257 -0.04712299257516861
0.0022873322013765574 -0.028165221214294434 -0.050023626536130905
0.002315010642632842 -0.029375042766332626 -0.052850153297185905
0.0023268242366611958 -0.030594332143664364 -0.055588431656360626
0.002347409725189209 -0.031830083578825 -0.05823519825935364
0.002370904665440321 -0.03305744752287865 -0.06080203875899315
0.002401149133220315 -0.03424650803208351 -0.0633029043674469
0.0024429464247077703 -0.035378407686948776 -0.06574659794569016
0.0024758127983659506 -0.03644905239343643 -0.06813500821590424
0.0025140612851828337 -0.037473537027835846 -0.07046111673116684
0.0025619138032197952 -0.03846767172217369 -0.07271753251552582
0.0026071176398545504 -0.039441704750061035 -0.07489949464797974
0.0026486441493034363 -0.04040330648422241 -0.07700341194868088
0.0026914223562926054 -0.04135621711611748 -0.07902755588293076
0.0027327577117830515 -0.04229843616485596 -0.08097284287214279
0.0027675682213157415 -0.04322363808751106 -0.08284223079681396
0.0027959367725998163 -0.044123005121946335 -0.08463983237743378
0.002822769805788994 -0.04498705640435219 -0.0863700583577156
0.002852949546650052 -0.04580782726407051 -0.08803664147853851
0.0028871840331703424 -0.04658022150397301 -0.08964194357395172
0.0029206497129052877 -0.04730265960097313 -0.09118670225143433
0.0029517675284296274 -0.04797801002860069 -0.09266959130764008
0.0029838785994797945 -0.04861312359571457 -0.0940873995423317
0.003018902847543359 -0.049217164516448975 -0.09543586522340775
0.0030546479392796755 -0.0497996024787426 -0.09671056270599365
0.0030884870793670416 -0.0503666028380394 -0.0979086309671402
0.0031200633384287357 -0.05091791972517967 -0.09903017431497574
0.0031490367837250233 -0.05144627019762993 -0.10007859021425247
0.003173950593918562 -0.05193883180618286 -0.10105986148118973
0.003192906267940998 -0.05237957090139389 -0.1019814610481262
0.003204090287908912 -0.052748847752809525 -0.10285255312919615
0.0032060428056865926 -0.05302281677722931 -0.10368424654006958
0.0031979666091501713 -0.05317746475338936 -0.10448774695396425
0.0031800006981939077 -0.05319491773843766 -0.1052713915705681
0.003153338097035885 -0.05306913703680038 -0.10603798925876617
0.0031201306264847517 -0.05280949920415878 -0.1067831665277481
0.003083207178860903 -0.052441488951444626 -0.10749504715204239
0.003045693039894104 -0.052004605531692505 -0.10815520584583281

CELLS 50 150
2 0 1
2 1 2
2 2 3
2 3 4
2 4 5
2 5 6
2 6 7
2 7 8
2 8 9
2 9 10
2 10 11
2 11 12
2 12 13
2 13 14
2 14 15
2 15 16
2 16 17
2 17 18
2 18 19
2 19 20
2 20 21
2 21 22
2 22 23
2 23 24
2 24 25
2 25 26
2 26 27
2 27 28
2 28 29
2 29 30
2 30 31
2 31 32
2 32 33
2 33 34
2 34 35
2 35 36
2 36 37
2 37 38
2 38 39
2 39 40
2 40 41
2 41 42
2 42 43
2 43 44
2 44 45
2 45 46
2 46 47
2 47 48
2 48 49
2 49 50

CELL_TYPES 50
4
4
4
4
4
4
4
4
4
4
4
4
4
4
4
4
4
4
4
4
4
4
4
4
4
4
4
4
4
4
4
4
4
4
4
4
4
4
4
4
4
4
4
4
4
4
4
4
4
4

POINT_DATA 51

SCALARS zone float
LOOKUP_TABLE default
1.0
1.0
1.0
1.0
1.0
1.0
1.0
1.0
1.0
1.0
1.0
1.0
1.0
1.0
1.0
1.0
1.0
1.0
1.0
1.0
1.0
1.0
1.0
1.0
1.0
1.0
1.0
1.0
1.0
1.0
1.0
1.0
1.0
1.0
1.0
1.0
1.0
1.0
1.0
1.0
1.0
1.0
1.0
1.0
1.0
1.0
1.0
1.0
1.0
1.0
1.0

VECTORS normals float
-0.00016346495249308646 -0.0009096336434595287 -0.0018580176401883364
-0.00028733181534335017 -0.0018747521098703144 -0.0036482445430010553
-0.0002512586652301252 -0.0018531554378569124 -0.0035744798369705673
-0.0002959130215458572 -0.0017714031273499131 -0.0035287661012262106
-0.0003617173351813108 -0.001775292097590864 -0.0034431172534823418
-0.000335126620484516 -0.001672065583989024 -0.0034074170980602503
-0.00016585958655923605 -0.0015207077376544476 -0.003394160885363817
3.856507100863382e-5 -0.0015377635136246681 -0.003302372293546796
0.00017817027401179075 -0.001511421985924244 -0.0032308201771229506
0.0002414538903394714 -0.001399457105435431 -0.003199194790795446
0.00023929805320221928 -0.0013972340384498239 -0.0031163960229605436
0.00020282164041418582 -0.0014061930123716593 -0.0030283830128610134
0.0001460601488361135 -0.001343724550679326 -0.0029736768919974566
8.396180783165619e-5 -0.001264879829250276 -0.002926607383415103
4.104220715817064e-5 -0.001220255857333541 -0.0028635805938392878
1.9746014004340395e-5 -0.0012145560467615724 -0.002782403025776148
1.6199513993342407e-5 -0.001227520639076829 -0.0026925220154225826
2.2040156181901693e-5 -0.0012315574567764997 -0.0026068042498081923
2.6869760404224508e-5 -0.0012082126922905445 -0.0025338546838611364
3.6020985135110095e-5 -0.0011604796163737774 -0.0024722774978727102
3.733187259058468e-5 -0.001101271715015173 -0.0024160512257367373
3.555733201210387e-5 -0.0010475656017661095 -0.0023572593927383423
4.305047696107067e-5 -0.0010093090822920203 -0.0022912630811333656
4.652824645745568e-5 -0.0009840824641287327 -0.0022191910538822412
4.336517667979933e-5 -0.0009678184287622572 -0.00214293971657753
4.2152376408921555e-5 -0.0009572564740665257 -0.0020640294533222914
4.205681398161687e-5 -0.0009475639672018588 -0.001984713599085808
3.8072852476034313e-5 -0.0009337117080576718 -0.001907337689772248
3.158946492476389e-5 -0.0009122840710915625 -0.0018334940541535616
2.760080860753078e-5 -0.00088170898379758 -0.0017639161087572575
2.850641067198012e-5 -0.0008424123516306281 -0.0016984048997983339
3.2207175536314026e-5 -0.0007965825498104097 -0.0016359402798116205
3.3850083127617836e-5 -0.0007474154699593782 -0.0015750318998470902
3.2291711249854416e-5 -0.0006988933309912682 -0.001513822702690959
3.161442145938054e-5 -0.0006552330451086164 -0.0014503463171422482
3.356763409101404e-5 -0.0006195770693011582 -0.001383137539960444
3.538468081387691e-5 -0.0005932380445301533 -0.0013115842593833804
3.4792101359926164e-5 -0.0005747191607952118 -0.0012363842688500881
3.270775778219104e-5 -0.000559159554541111 -0.0011598044075071812
3.0274881282821298e-5 -0.0005398342618718743 -0.0010849805548787117
2.6943627744913098e-5 -0.0005104556330479681 -0.001014844630844891
2.1934773030807264e-5 -0.00046665043919347227 -0.0009514358825981617
1.506981334387092e-5 -0.0004050087591167539 -0.0008963444270193577
6.568267963302787e-6 -0.00032162253046408296 -0.000851392629556358
-3.061904180867714e-6 -0.00021430863125715402 -0.0008175984839908779
-1.3021096492593642e-5 -8.6051324615255e-5 -0.0007935704197734594
-2.2314161469694227e-5 5.4163891036296257e-5 -0.0007751184166409075
-2.9934990379842926e-5 0.00019271056225989014 -0.0007558883517049253
-3.506556458887644e-5 0.0003138256724923849 -0.000728529819753021
-3.721884422702715e-5 0.0004024459049105645 -0.0006860186695121229
-1.8757042198558338e-5 0.00021844076400157067 -0.000330079288687557

CELL_DATA 50

VECTORS liftinglineloading               float
0.05647750198841095 0.06766742467880249 -0.024628927931189537
-0.004115018527954817 0.014480245299637318 -0.005270378198474646
0.05396310985088349 0.061875119805336 -0.022520700469613075
0.13628028333187103 0.1223278045654297 -0.044523678719997406
-0.1580856442451477 0.23368529975414276 -0.08505449444055557
-0.8342597484588623 0.42775407433509827 -0.15568974614143372
-2.047154426574707 0.7819016575813293 -0.28458893299102783
-3.136462450027466 1.0641661882400513 -0.38732481002807617
-4.164314270019531 1.3188953399658203 -0.4800386428833008
-5.462883949279785 1.5974167585372925 -0.581412136554718
-6.702875137329102 1.8308013677597046 -0.6663572192192078
-8.014897346496582 2.0669105052948 -0.7522938847541809
-8.948929786682129 2.2261438369750977 -0.8102501034736633
-9.528185844421387 2.2821896076202393 -0.8306490182876587
-9.954402923583984 2.2815194129943848 -0.8304051756858825
-10.835491180419922 2.3431179523468018 -0.8528251647949219
-11.195734977722168 2.297499656677246 -0.8362215161323547
-11.860581398010254 2.335315465927124 -0.849985361099243
-12.220468521118164 2.2995197772979736 -0.8369567394256592
-12.774567604064941 2.3132882118225098 -0.8419680595397949
-13.0271053314209 2.287766456604004 -0.8326789140701295
-13.46619129180908 2.2735702991485596 -0.8275119066238403
-13.370421409606932 2.147143602371216 -0.7814964056015015
-13.558788299560547 2.1035118103027344 -0.765615701675415
-13.663992881774902 2.020569086074829 -0.7354270219802856
-13.918651580810547 1.9693944454193115 -0.7168009877204895
-14.334739685058594 1.945388674736023 -0.708063542842865
-14.587388992309572 1.8873226642608643 -0.6869292855262756
-14.77767562866211 1.8513473272323608 -0.6738353371620178
-14.99238109588623 1.781172513961792 -0.6482937932014465
-15.59394359588623 1.7384021282196043 -0.6327266097068787
-15.944355010986326 1.6632566452026367 -0.6053758859634399
-16.546751022338867 1.5786348581314087 -0.5745760798454285
-16.661182403564453 1.4797643423080444 -0.5385901927947998
-16.486927032470703 1.3991528749465942 -0.5092499852180481
-16.417203903198242 1.3410720825195312 -0.48811033368110657
-16.372591018676758 1.2846903800964355 -0.46758905053138733
-16.094655990600586 1.2552088499069214 -0.45685866475105286
-15.808647155761719 1.2478022575378418 -0.45416286587715154
-15.499041557312012 1.2349287271499634 -0.4494773149490357
-15.356978416442871 1.2252178192138672 -0.44594281911849976
-14.312701225280762 1.1800744533538818 -0.4295119643211365
-12.886579513549805 1.3207015991210938 -0.48069608211517334
-10.96158218383789 1.2922744750976562 -0.4703494608402252
-9.202786445617676 1.4746551513671875 -0.5367305874824524
-7.3645429611206055 1.5519115924835205 -0.5648496150970459
-5.71553897857666 1.4999475479125977 -0.5459362268447876
-4.1187825202941895 1.3717012405395508 -0.499258428812027
-2.7350101470947266 1.225949764251709 -0.44620925188064575
-1.2513374090194702 1.0822664499282837 -0.39391276240348816