# vtk DataFile Version 4.0
 
ASCII
DATASET UNSTRUCTURED_GRID
POINTS 51 float
0.002990470267832279 -0.003376511856913566 0.006631710100919007
0.002663540421053767 -0.006919846870005131 0.008767927996814251
0.0024158067535609007 -0.010318445041775703 0.011002876795828342
0.0021610232070088387 -0.013718576170504093 0.013083208352327347
0.0018239807104691865 -0.017040345817804337 0.015147306025028227
0.0014375883620232344 -0.020269151777029037 0.017220456153154373
0.0011537274112924933 -0.023537786677479744 0.01907266490161419
0.0011058691889047623 -0.026766566559672352 0.020841939374804497
0.0012308575678616762 -0.029849348589777946 0.02271212823688984
0.0014622097369283438 -0.03294016048312187 0.024416450411081314
0.0017137653194367886 -0.03597944974899292 0.026058048009872437
0.0019408058142289517 -0.03890568017959595 0.027743507176637646
0.0021194086875766516 -0.04176805168390274 0.029387615621089935
0.0022329261992126703 -0.04459617659449577 0.03093907609581947
0.0022873322013765574 -0.04737851023674011 0.032417889684438705
0.002315010642632842 -0.05008883774280548 0.03386945649981499
0.0023268242366611958 -0.05271042883396149 0.03532276302576065
0.002347409725189209 -0.05523942038416863 0.036784492433071136
0.002370904665440321 -0.057689521461725235 0.03823089972138405
0.002401149133220315 -0.0600772388279438 0.03963340446352959
0.0024429464247077703 -0.06241297721862794 0.040973976254463196
0.0024758127983659506 -0.06469899415969849 0.04224871098995209
0.0025140612851828337 -0.06692695617675781 0.04347202926874161
0.0025619138032197952 -0.06908814609050751 0.04465904086828232
0.0026071176398545504 -0.0711769089102745 0.04581953585147858
0.0026486441493034363 -0.07318901270627975 0.046960849314928055
0.0026914223562926054 -0.0751224011182785 0.04808655008673668
0.0027327577117830515 -0.0769781619310379 0.04919472709298134
0.0027675682213157415 -0.0787598043680191 0.05027933791279793
0.0027959367725998163 -0.0804721787571907 0.05133194848895073
0.002822769805788994 -0.08212051540613174 0.05234351381659508
0.002852949546650052 -0.083709217607975 0.05330641567707061
0.0028871840331703424 -0.08524109423160553 0.05421578139066696
0.0029206497129052877 -0.08671700954437256 0.05507010221481324
0.0029517675284296274 -0.08813539147377014 0.055872123688459396
0.0029838785994797945 -0.08949245512485504 0.05662839487195015
0.003018902847543359 -0.09078314155340195 0.05734765902161599
0.0030546479392796755 -0.09200222790241241 0.05803897976875305
0.0030884870793670416 -0.09314632415771484 0.05870823934674262
0.0031200633384287357 -0.09421554207801819 0.05935521051287651
0.0031490367837250233 -0.09521392732858658 0.05997292697429656
0.003173950593918562 -0.0961485356092453 0.060549136251211166
0.003192906267940998 -0.0970282107591629 0.06106851994991302
0.003204090287908912 -0.09786380082368851 0.06151231378316879
0.0032060428056865926 -0.09866845607757568 0.06185772642493248
0.0031979666091501713 -0.09945542365312576 0.06208181753754616
0.0031800006981939077 -0.10023456066846848 0.06216750293970108
0.003153338097035885 -0.10100919753313065 0.06210901588201523
0.0031201306264847517 -0.1017741709947586 0.061915308237075806
0.003083207178860903 -0.10251541435718538 0.06161074340343475
0.003045693039894104 -0.10321114212274551 0.06123305857181549

CELLS 50 150
2 0 1
2 1 2
2 2 3
2 3 4
2 4 5
2 5 6
2 6 7
2 7 8
2 8 9
2 9 10
2 10 11
2 11 12
2 12 13
2 13 14
2 14 15
2 15 16
2 16 17
2 17 18
2 18 19
2 19 20
2 20 21
2 21 22
2 22 23
2 23 24
2 24 25
2 25 26
2 26 27
2 27 28
2 28 29
2 29 30
2 30 31
2 31 32
2 32 33
2 33 34
2 34 35
2 35 36
2 36 37
2 37 38
2 38 39
2 39 40
2 40 41
2 41 42
2 42 43
2 43 44
2 44 45
2 45 46
2 46 47
2 47 48
2 48 49
2 49 50

CELL_TYPES 50
4
4
4
4
4
4
4
4
4
4
4
4
4
4
4
4
4
4
4
4
4
4
4
4
4
4
4
4
4
4
4
4
4
4
4
4
4
4
4
4
4
4
4
4
4
4
4
4
4
4

POINT_DATA 51

SCALARS zone float
LOOKUP_TABLE default
1.0
1.0
1.0
1.0
1.0
1.0
1.0
1.0
1.0
1.0
1.0
1.0
1.0
1.0
1.0
1.0
1.0
1.0
1.0
1.0
1.0
1.0
1.0
1.0
1.0
1.0
1.0
1.0
1.0
1.0
1.0
1.0
1.0
1.0
1.0
1.0
1.0
1.0
1.0
1.0
1.0
1.0
1.0
1.0
1.0
1.0
1.0
1.0
1.0
1.0
1.0

VECTORS normals float
-0.00016346495249308646 -0.001771667506545782 0.0010681090643629432
-0.00028733181534335017 -0.0034709663596004248 0.0021855835802853107
-0.0002512586652301252 -0.003399364650249481 0.002157640177756548
-0.0002959130215458572 -0.0033609501551836733 0.002072214614599943
-0.0003617173351813108 -0.0032752882689237595 0.002068623900413513
-0.000335126620484516 -0.003248720662668347 0.0019626787398010492
-0.00016585958655923605 -0.003248706692829728 0.0018107416108250616
3.856507100863382e-5 -0.0031557809561491013 0.0018197325989603998
0.00017817027401179075 -0.0030867967288941145 0.0017872550524771214
0.0002414538903394714 -0.0030650501139461994 0.0016729598864912985
0.00023929805320221928 -0.0029827600810676813 0.0016635289648547769
0.00020282164041418582 -0.002894301200285554 0.0016647829907014968
0.0001460601488361135 -0.0028452479746192694 0.00159778434317559
8.396180783165619e-5 -0.002805229276418686 0.0015151372645050287
4.104220715817064e-5 -0.0027463315054774284 0.0014651899691671133
1.9746014004340395e-5 -0.002665959531441331 0.0014524367870762944
1.6199513993342407e-5 -0.002575290622189641 0.0014575183158740401
2.2040156181901693e-5 -0.0024895472452044487 0.0014540690463036299
2.6869760404224508e-5 -0.0024189099203795195 0.0014244549674913287
3.6020985135110095e-5 -0.0023617271799594164 0.0013715368695557117
3.733187259058468e-5 -0.002310875104740262 0.0013076537288725376
3.555733201210387e-5 -0.002256987849250436 0.0012490280205383897
4.305047696107067e-5 -0.0021945771295577288 0.0012051650555804372
4.652824645745568e-5 -0.002124977996572852 0.001173752942122519
4.336517667979933e-5 -0.0020504342392086983 0.001150905154645443
4.2152376408921555e-5 -0.001972744707018137 0.0011335058370605111
4.205681398161687e-5 -0.0018945756601169705 0.001116937375627458
3.8072852476034313e-5 -0.0018187012756243348 0.0010963940294459462
3.158946492476389e-5 -0.0017470063176006079 0.0010686120949685574
2.760080860753078e-5 -0.0016803578473627565 0.001032089232467115
2.850641067198012e-5 -0.0016185209387913348 0.0009872324299067259
3.2207175536314026e-5 -0.0015602883649989963 0.0009361329139210283
3.3850083127617836e-5 -0.0015038968995213509 0.0008818443748168646
3.2291711249854416e-5 -0.0014471495524048805 0.0008281721966341138
3.161442145938054e-5 -0.0013877199962735176 0.0007791456882841885
3.356763409101404e-5 -0.0013238745741546154 0.0007377677829936147
3.538468081387691e-5 -0.0012548891827464104 0.0007052927394397557
3.4792101359926164e-5 -0.0011815894395112991 0.0006802902207709849
3.270775778219104e-5 -0.001106657087802887 0.0006581153720617294
3.0274881282821298e-5 -0.0010338021675124764 0.0006323423585854471
2.6943627744913098e-5 -0.0009664936223998666 0.000596962752752006
2.1934773030807264e-5 -0.0009071441018022598 0.0005477977683767676
1.506981334387092e-5 -0.0008576347026973963 0.0004815891443286091
6.568267963302787e-6 -0.0008201215532608329 0.0003946024226024747
-3.061904180867714e-6 -0.0007958090282045305 0.0002847515279427171
-1.3021096492593642e-5 -0.0007830507820472121 0.0001548880827613175
-2.2314161469694227e-5 -0.0007768895593471825 1.3598239092971198e-5
-2.9934990379842926e-5 -0.0007698077824898064 -0.0001260972348973155
-3.506556458887644e-5 -0.0007531092269346118 -0.0002491359191481024
-3.721884422702715e-5 -0.0007184836431406438 -0.0003411239886190742
-1.8757042198558338e-5 -0.000347861583577469 -0.00018884122255258262

CELL_DATA 50

VECTORS liftinglineloading               float
0.07159020006656647 -0.034780267626047134 -0.07458652555942535
0.04917124658823013 -0.0315404087305069 -0.06763862818479538
0.00311133055947721 -0.024039169773459435 -0.05155216529965401
0.1984255015850067 -0.04291020706295967 -0.09202123433351517
-0.056167043745517724 -0.09404396265745163 -0.20167793333530426
-0.7715412974357605 -0.18481983244419098 -0.39634740352630615
-2.0459556579589844 -0.35119402408599854 -0.75313800573349
-3.241673231124878 -0.48729464411735535 -1.0450067520141602
-4.381163120269775 -0.6090066432952881 -1.3060189485549927
-5.8456339836120605 -0.74431312084198 -1.5961846113204956
-7.20600700378418 -0.8531732559204102 -1.8296359777450562
-8.584309577941895 -0.9610565900802611 -2.060992479324341
-9.547173500061035 -1.0306965112686157 -2.2103357315063477
-10.103865623474121 -1.0528945922851562 -2.257939577102661
-10.529647827148438 -1.0528584718704224 -2.257862091064453
-11.349825859069824 -1.074452519416809 -2.304170846939087
-11.67457103729248 -1.0497746467590332 -2.251249074935913
-12.301593780517578 -1.0635650157928467 -2.280822515487671
-12.599624633789062 -1.041839361190796 -2.23423171043396
-13.074052810668945 -1.0439960956573486 -2.2388570308685303
-13.246129989624023 -1.0297694206237793 -2.2083475589752197
-13.601264953613283 -1.021251916885376 -2.190081834793091
-13.416680335998535 -0.9625009298324584 -2.064089775085449
-13.534039497375487 -0.9416404962539673 -2.0193545818328857
-13.576245307922363 -0.9035516977310182 -1.9376729726791382
-13.826811790466309 -0.8806126713752745 -1.8884799480438232
-14.175991058349608 -0.8693907260894775 -1.8644144535064697
-14.564540863037108 -0.845090687274933 -1.812302827835083
-14.748658180236815 -0.8289527893066407 -1.7776949405670166
-14.966875076293945 -0.7975255250930786 -1.710299015045166
-15.575986862182615 -0.7781512141227722 -1.6687506437301636
-15.94584274291992 -0.7441723346710205 -1.5958826541900635
-16.498001098632812 -0.7069118022918701 -1.5159772634506226
-16.6528263092041 -0.6620322465896606 -1.419732689857483
-16.505672454833984 -0.6255860328674316 -1.3415735960006714
-16.462940216064453 -0.5992892384529114 -1.285179853439331
-16.443185806274414 -0.5739938616752625 -1.2309339046478271
-16.181663513183594 -0.5607033967971802 -1.2024322748184204
-15.946551322937012 -0.5573298335075378 -1.1951977014541626
-15.675210952758789 -0.5516188144683838 -1.1829502582550049
-15.449319839477539 -0.5480613112449646 -1.1753212213516235
-14.48667907714844 -0.5275358557701111 -1.131304383277893
-13.049522399902344 -0.5926581621170044 -1.270959496498108
-11.124598503112793 -0.5815911889076233 -1.2472262382507324
-9.362504005432129 -0.6663483381271362 -1.4289885759353638
-7.530827522277832 -0.7018393874168396 -1.5050995349884033
-5.868031024932861 -0.679570734500885 -1.4573441743850708
-4.253170490264893 -0.622639000415802 -1.3352537155151367
-2.8368194103240967 -0.5573192834854126 -1.195175051689148
-1.3097612857818604 -0.4925813376903534 -1.0563441514968872