# vtk DataFile Version 4.0
 
ASCII
DATASET UNSTRUCTURED_GRID
POINTS 51 float
0.002990470267832279 0.002173630753532052 -0.007117284461855889
0.002663540421053767 0.005292184185236692 -0.009836342185735703
0.0024158067535609007 0.008251055143773556 -0.012627498246729374
0.0021610232070088387 0.011238285340368748 -0.015266650356352331
0.0018239807104691865 0.014151161536574364 -0.017876209691166878
0.0014375883620232344 0.016970917582511902 -0.020478541031479836
0.0011537274112924933 0.019868262112140656 -0.022870201617479324
0.0011058691889047623 0.02274075709283352 -0.02517326921224594
0.0012308575678616762 0.02545194886624813 -0.027550365775823593
0.0014622097369283438 0.028199853375554085 -0.029765507206320763
0.0017137653194367886 0.03090790659189224 -0.03190993517637253
0.0019408058142289517 0.033497005701065063 -0.03407792001962662
0.0021194086875766516 0.03603039309382439 -0.0361940972507
0.0022329261992126703 0.03854614496231079 -0.038213085383176804
0.0022873322013765574 0.041029416024684906 -0.04015257954597473
0.002315010642632842 0.043446507304906845 -0.0420527383685112
0.0023268242366611958 0.04577590525150299 -0.043939199298620224
0.002347409725189209 0.04801264777779579 -0.04581787809729576
0.002370904665440321 0.05017436295747757 -0.047667767852544785
0.002401149133220315 0.05228226259350777 -0.04946358501911163
0.0024429464247077703 0.05434972792863846 -0.051189389079809196
0.0024758127983659506 0.05637965723872185 -0.05284171923995019
0.0025140612851828337 0.058361344039440155 -0.05443333461880684
0.0025619138032197952 0.06028357893228531 -0.05597760155797005
0.0026071176398545504 0.06213909387588501 -0.05748317390680313
0.0026486441493034363 0.0639224424958229 -0.05895654857158661
0.0026914223562926054 0.06563097983598709 -0.06040087342262268
0.0027327577117830515 0.06726612150669098 -0.06181446462869644
0.0027675682213157415 0.06883234530687332 -0.0631919726729393
0.0027959367725998163 0.07033592462539673 -0.06452594697475433
0.002822769805788994 0.07178356498479843 -0.06580837815999985
0.002852949546650052 0.07318092882633209 -0.06703252345323563
0.0028871840331703424 0.07453162223100662 -0.06819408386945724
0.0029206497129052877 0.07583676278591156 -0.06929171830415726
0.0029517675284296274 0.07709432393312454 -0.07032785564661026
0.0029838785994797945 0.07829944044351578 -0.07130828499794006
0.003018902847543359 0.07944562286138535 -0.07224074751138687
0.0030546479392796755 0.08052615076303482 -0.07313326001167297
0.0030884870793670416 0.08153664320707321 -0.07399102300405502
0.0031200633384287357 0.08247727900743484 -0.0748138278722763
0.0031490367837250233 0.08335322141647339 -0.07559552788734436
0.003173950593918562 0.08417357504367828 -0.07632527500391006
0.003192906267940998 0.08494970202445984 -0.07698952406644821
0.003204090287908912 0.0856955274939537 -0.07757167518138885
0.0032060428056865926 0.08642797917127609 -0.07805156707763672
0.0031979666091501713 0.08716407418251038 -0.07840890437364578
0.0031800006981939077 0.08791649341583252 -0.07862858474254608
0.003153338097035885 0.08868952840566635 -0.07870550453662872
0.0031201306264847517 0.08947651833295822 -0.07864757627248764
0.003083207178860903 0.09025938808917999 -0.07847635447978973
0.003045693039894104 0.09101012349128723 -0.07822521775960922

CELLS 50 150
2 0 1
2 1 2
2 2 3
2 3 4
2 4 5
2 5 6
2 6 7
2 7 8
2 8 9
2 9 10
2 10 11
2 11 12
2 12 13
2 13 14
2 14 15
2 15 16
2 16 17
2 17 18
2 18 19
2 19 20
2 20 21
2 21 22
2 22 23
2 23 24
2 24 25
2 25 26
2 26 27
2 27 28
2 28 29
2 29 30
2 30 31
2 31 32
2 32 33
2 33 34
2 34 35
2 35 36
2 36 37
2 37 38
2 38 39
2 39 40
2 40 41
2 41 42
2 42 43
2 43 44
2 44 45
2 45 46
2 46 47
2 47 48
2 48 49
2 49 50

CELL_TYPES 50
4
4
4
4
4
4
4
4
4
4
4
4
4
4
4
4
4
4
4
4
4
4
4
4
4
4
4
4
4
4
4
4
4
4
4
4
4
4
4
4
4
4
4
4
4
4
4
4
4
4

POINT_DATA 51

SCALARS zone float
LOOKUP_TABLE default
1.0
1.0
1.0
1.0
1.0
1.0
1.0
1.0
1.0
1.0
1.0
1.0
1.0
1.0
1.0
1.0
1.0
1.0
1.0
1.0
1.0
1.0
1.0
1.0
1.0
1.0
1.0
1.0
1.0
1.0
1.0
1.0
1.0
1.0
1.0
1.0
1.0
1.0
1.0
1.0
1.0
1.0
1.0
1.0
1.0
1.0
1.0
1.0
1.0
1.0
1.0

VECTORS normals float
-0.00016346495249308646 0.0015592767158523202 -0.001359528978355229
-0.00028733181534335017 0.00303871207870543 -0.002755106659606099
-0.0002512586652301252 0.002973050344735384 -0.0027151540853083134
-0.0002959130215458572 0.0029500534292310476 -0.0026243559550493956
-0.0003617173351813108 0.0028663163539022207 -0.002605944871902466
-0.000335126620484516 0.0028585498221218586 -0.0024969957303255796
-0.00016585958655923605 0.0028849197551608086 -0.0023473643232136965
3.856507100863382e-5 0.0027918443083763123 -0.002340082312002778
0.00017817027401179075 0.0027295479085296392 -0.0022961192298680544
0.0002414538903394714 0.002727978862822056 -0.00217978423461318
0.00023929805320221928 0.0026485766284167767 -0.0021562071051448584
0.00020282164041418582 0.0025612437166273594 -0.002142081269994378
0.0001460601488361135 0.0025245698634535074 -0.0020675824489444494
8.396180783165619e-5 0.0024995107669383287 -0.001979241846129298
4.104220715817064e-5 0.0024501809384673834 -0.0019198257941752672
1.9746014004340395e-5 0.0023732446134090424 -0.0018933099927380683
1.6199513993342407e-5 0.0022830709349364042 -0.0018825698643922806
2.2040156181901693e-5 0.0021992288529872894 -0.001864283811300993
2.6869760404224508e-5 0.002134807175025344 -0.0018228536937385795
3.6020985135110095e-5 0.0020876824855804443 -0.0017608097987249494
3.733187259058468e-5 0.002048696158453822 -0.0016890668775886297
3.555733201210387e-5 0.002005807589739561 -0.0016219742828980088
4.305047696107067e-5 0.001951961894519627 -0.0015679402276873589
4.652824645745568e-5 0.0018888746853917835 -0.001524919643998146
4.336517667979933e-5 0.001819430966861546 -0.0014894744381308556
4.2152376408921555e-5 0.0017459430964663625 -0.0014588488265872002
4.205681398161687e-5 0.0016718385741114616 -0.0014289581449702382
3.8072852476034313e-5 0.001600684365257621 -0.001395551604218781
3.158946492476389e-5 0.0015349028399214149 -0.0013557419879361987
2.760080860753078e-5 0.0014756090240553021 -0.0013082005316391587
2.850641067198012e-5 0.0014225008198991418 -0.0012532874243333936
3.2207175536314026e-5 0.001374026294797659 -0.0011928521562367678
3.3850083127617836e-5 0.0013279186096042395 -0.0011295961448922753
3.2291711249854416e-5 0.001281353528611362 -0.0010668853064998984
3.161442145938054e-5 0.0012313402257859707 -0.0010082838125526905
3.356763409101404e-5 0.001175649929791689 -0.0009564478532411158
3.538468081387691e-5 0.0011133517837151885 -0.000912486924789846
3.4792101359926164e-5 0.0010455072624608874 -0.0008751358836889267
3.270775778219104e-5 0.0009755639475770295 -0.0008402861421927809
3.0274881282821298e-5 0.0009082913165912032 -0.000802253489382565
2.6943627744913098e-5 0.0008481489494442941 -0.0007557233911938965
2.1934773030807264e-5 0.0007982384413480759 -0.0006969994283281267
1.506981334387092e-5 0.0007609782624058425 -0.0006231993902474642
6.568267963302787e-6 0.0007391400868073106 -0.0005310201086103916
-3.061904180867714e-6 0.0007342723547481 -0.0004186162841506303
-1.3021096492593642e-5 0.0007442584028467536 -0.0002885103167500347
-2.2314161469694227e-5 0.000762725539971143 -0.00014829709834884852
-2.9934990379842926e-5 0.0007800092571415007 -9.494189725955948e-6
-3.506556458887644e-5 0.0007849298417568207 0.00011457492655608803
-3.721884422702715e-5 0.0007668038015253842 0.0002111781941493973
-1.8757042198558338e-5 0.00037536871968768537 0.00012556675937958062

CELL_DATA 50

VECTORS liftinglineloading               float
0.06886526197195053 0.04604588449001312 0.06576033681631088
0.04053833708167076 0.03712180256843567 0.05301542580127717
0.012654459103941917 0.032856572419404984 0.04692404717206955
0.19123958051204681 0.06033049151301384 0.08616086840629578
-0.07635466009378433 0.12984474003314972 0.18543750047683716
-0.7370913624763489 0.24467214941978455 0.34942805767059326
-2.028451919555664 0.4739730954170227 0.6769037246704102
-3.2341623306274414 0.6601341962814331 0.9427693486213684
-4.364136695861816 0.8235697746276855 1.1761795282363892
-5.814298629760742 1.0060060024261475 1.4367254972457886
-7.164456367492677 1.1532528400421143 1.6470158100128174
-8.537908554077148 1.299636721611023 1.8560736179351807
-9.50162410736084 1.3946902751922607 1.9918240308761597
-10.024761199951172 1.421975016593933 2.0307908058166504
-10.420681953430176 1.4202728271484375 2.0283596515655518
-11.206448554992676 1.4484946727752686 2.068664789199829
-11.480438232421875 1.4133580923080444 2.018484592437744
-12.281881332397461 1.4421747922897339 2.0596389770507812
-12.582016944885254 1.412698745727539 2.017542839050293
-13.062948226928711 1.4160797595977783 2.022371530532837
-13.248265266418455 1.397326946258545 1.9955896139144897
-13.545288085937502 1.384398341178894 1.9771257638931274
-13.402145385742188 1.3058586120605469 1.8649593591690063
-13.54347515106201 1.278106927871704 1.825325846672058
-13.598909378051758 1.2265104055404663 1.7516384124755862
-13.80723762512207 1.1949084997177124 1.7065062522888184
-14.178276062011719 1.1800673007965088 1.6853108406066895
-14.467478752136232 1.1456807851791382 1.6362017393112183
-14.646272659301758 1.1240030527114868 1.6052427291870117
-14.878663063049316 1.0818392038345337 1.545026421546936
-15.525842666625977 1.056093454360962 1.5082577466964722
-15.939194679260256 1.0097063779830933 1.4420101642608643
-16.379173278808594 0.9605624079704286 1.3718252182006836
-16.464385986328125 0.9013941884040833 1.28732430934906
-16.339576721191406 0.8518022298812866 1.21649968624115
-16.31195640563965 0.8158344030380249 1.1651322841644287
-16.30537986755371 0.780976414680481 1.1153498888015747
-16.060583114624023 0.7626556158065796 1.089185118675232
-15.824769973754885 0.7577527761459351 1.0821831226348877
-15.55964469909668 0.7497001886367798 1.0706828832626343
-15.347238540649416 0.7446916103363037 1.0635298490524292
-14.340949058532713 0.7171003222465515 1.0241254568099976
-12.971009254455566 0.80391526222229 1.1481099128723145
-11.055148124694824 0.7881786823272705 1.1256357431411743
-9.30138874053955 0.9020479917526246 1.2882580757141113
-7.472385883331299 0.9500225782394409 1.3567728996276855
-5.817451477050781 0.9195377826690673 1.3132359981536865
-4.210556983947754 0.8421704173088074 1.2027440071105957
-2.80391788482666 0.7535809278488159 1.0762250423431396
-1.2919150590896606 0.6658840179443359 0.9509809613227844