# vtk DataFile Version 4.0
 
ASCII
DATASET UNSTRUCTURED_GRID
POINTS 51 float
0.002990470267832279 -0.0009047048515640199 0.007386603858321905
0.002663540421053767 -0.003503720974549651 0.010605884715914726
0.0024158067535609007 -0.005932960659265518 0.013868438079953194
0.0021610232070088387 -0.008416524156928062 0.016986222937703133
0.0018239807104691865 -0.010832002386450768 0.020061952993273735
0.0014375883620232344 -0.013157030567526816 0.023114394396543503
0.0011537274112924933 -0.015595048666000366 0.025972839444875717
0.0011058691889047623 -0.018023980781435966 0.028739722445607185
0.0012308575678616762 -0.02028120681643486 0.03155149891972542
0.0014622097369283438 -0.022602707147598267 0.03421015664935112
0.0017137653194367886 -0.024897245690226555 0.03679225221276283
0.0019408058142289517 -0.02707054279744625 0.03937689587473869
0.0021194086875766516 -0.029197972267866135 0.041900839656591415
0.0022329261992126703 -0.03132491186261177 0.04432601109147072
0.0022873322013765574 -0.033433664590120316 0.04666725546121597
0.002315010642632842 -0.03548407554626465 0.04895826801657677
0.0023268242366611958 -0.037450503557920456 0.051220569759607315
0.002347409725189209 -0.03932703658938408 0.05345911160111427
0.002370904665440321 -0.041134681552648544 0.055656272917985916
0.002401149133220315 -0.042898718267679214 0.0577908419072628
0.0024429464247077703 -0.044635090976953506 0.059849437326192856
0.0024758127983659506 -0.046347253024578094 0.06182916089892387
0.0025140612851828337 -0.04802245274186134 0.06374071538448334
0.0025619138032197952 -0.04964732751250267 0.06559530645608902
0.0026071176398545504 -0.05121321231126785 0.06740021705627441
0.0026486441493034363 -0.05271361768245697 0.06916087865829468
0.0026914223562926054 -0.054145395755767815 0.07087995111942291
0.0027327577117830515 -0.05551022663712502 0.07255600392818451
0.0027675682213157415 -0.05681345984339714 0.07418455928564072
0.0027959367725998163 -0.05806254968047142 0.07575935870409012
0.002822769805788994 -0.05926550924777984 0.07727368921041489
0.002852949546650052 -0.06042906641960145 0.07872188091278076
0.0028871840331703424 -0.06155753880739212 0.08010034263134003
0.0029206497129052877 -0.06265225261449814 0.08140793442726135
0.0029517675284296274 -0.0637107864022255 0.08264670521020889
0.0029838785994797945 -0.06472734361886978 0.08382150530815125
0.003018902847543359 -0.06569419056177139 0.08493883907794952
0.0030546479392796755 -0.06660331785678864 0.08600541949272156
0.0030884870793670416 -0.06744951009750366 0.08702562004327774
0.0031200633384287357 -0.06823297590017319 0.08799926936626434
0.0031490367837250233 -0.06895987689495087 0.0889211967587471
0.003173950593918562 -0.06964103877544403 0.08978231251239777
0.003192906267940998 -0.07029002904891968 0.09057123959064484
0.003204090287908912 -0.07092344015836716 0.09127406030893326
0.0032060428056865926 -0.07156143337488174 0.09187384694814682
0.0031979666091501713 -0.07222428917884827 0.09235358238220215
0.0031800006981939077 -0.07292713969945908 0.09270057827234268
0.003153338097035885 -0.07367506623268127 0.09291056543588638
0.0031201306264847517 -0.07446015626192093 0.09299017488956451
0.003083207178860903 -0.07526087015867233 0.0929574966430664
0.003045693039894104 -0.07604380697011948 0.09284054487943649

CELLS 50 150
2 0 1
2 1 2
2 2 3
2 3 4
2 4 5
2 5 6
2 6 7
2 7 8
2 8 9
2 9 10
2 10 11
2 11 12
2 12 13
2 13 14
2 14 15
2 15 16
2 16 17
2 17 18
2 18 19
2 19 20
2 20 21
2 21 22
2 22 23
2 23 24
2 24 25
2 25 26
2 26 27
2 27 28
2 28 29
2 29 30
2 30 31
2 31 32
2 32 33
2 33 34
2 34 35
2 35 36
2 36 37
2 37 38
2 38 39
2 39 40
2 40 41
2 41 42
2 42 43
2 43 44
2 44 45
2 45 46
2 46 47
2 47 48
2 48 49
2 49 50

CELL_TYPES 50
4
4
4
4
4
4
4
4
4
4
4
4
4
4
4
4
4
4
4
4
4
4
4
4
4
4
4
4
4
4
4
4
4
4
4
4
4
4
4
4
4
4
4
4
4
4
4
4
4
4

POINT_DATA 51

SCALARS zone float
LOOKUP_TABLE default
1.0
1.0
1.0
1.0
1.0
1.0
1.0
1.0
1.0
1.0
1.0
1.0
1.0
1.0
1.0
1.0
1.0
1.0
1.0
1.0
1.0
1.0
1.0
1.0
1.0
1.0
1.0
1.0
1.0
1.0
1.0
1.0
1.0
1.0
1.0
1.0
1.0
1.0
1.0
1.0
1.0
1.0
1.0
1.0
1.0
1.0
1.0
1.0
1.0
1.0
1.0

VECTORS normals float
-0.00016346495249308646 -0.0012995080323889852 0.0016096401959657667
-0.00028733181534335017 -0.0025141278747469187 0.0032409171108156447
-0.0002512586652301252 -0.002456401474773884 0.00319016957655549
-0.0002959130215458572 -0.0024495208635926247 0.0030967574566602707
-0.0003617173351813108 -0.0023702532052993774 0.0030640852637588978
-0.000335126620484516 -0.0023815231397747993 0.0029554427601397038
-0.00016585958655923605 -0.0024334758054465055 0.002812663558870554
3.856507100863382e-5 -0.0023430788423866034 0.002789329970255494
0.00017817027401179075 -0.0022893629502505064 0.0027352171018719673
0.0002414538903394714 -0.00230801897123456 0.002620376879349351
0.00023929805320221928 -0.002233917359262705 0.0025833698455244303
0.00020282164041418582 -0.0021503642201423645 0.0025542937219142914
0.0001460601488361135 -0.0021271840669214725 0.0024745583068579435
8.396180783165619e-5 -0.002117845695465803 0.0023832081351429224
4.104220715817064e-5 -0.002079583005979657 0.0023161289282143116
1.9746014004340395e-5 -0.0020084199495613575 0.002276655985042453
1.6199513993342407e-5 -0.0019214811036363242 0.002250420395284891
2.2040156181901693e-5 -0.0018420882988721132 0.002217853209003806
2.6869760404224508e-5 -0.0017858394421637058 0.0021658658515661955
3.6020985135110095e-5 -0.0017502044793218376 0.0020965812727808952
3.733187259058468e-5 -0.0017242684261873364 0.0020191585645079613
3.555733201210387e-5 -0.0016936820466071367 0.0019456377485767007
4.305047696107067e-5 -0.001650037243962288 0.001883074291981757
4.652824645745568e-5 -0.001595378969796002 0.001829752349294722
4.336517667979933e-5 -0.0015331452013924718 0.00178278679959476
4.2152376408921555e-5 -0.0014660918386653066 0.0017398655181750655
4.205681398161687e-5 -0.0013983036624267697 0.0016975607722997665
3.8072852476034313e-5 -0.0013340313453227282 0.0016523059457540512
3.158946492476389e-5 -0.0012761621037498116 0.0016016782028600574
2.760080860753078e-5 -0.001226024585776031 0.001544562866911292
2.850641067198012e-5 -0.0011832588352262974 0.0014812618028372526
3.2207175536314026e-5 -0.0011460151290521026 0.0014133271761238575
3.3850083127617836e-5 -0.0011115922825410962 0.001343025709502399
3.2291711249854416e-5 -0.0010766241466626525 0.0012731816386803985
3.161442145938054e-5 -0.0010375467827543616 0.00120678567327559
3.356763409101404e-5 -0.0009917037095874548 0.001146066701039672
3.538468081387691e-5 -0.000937985780183226 0.0010919556953012943
3.4792101359926164e-5 -0.0008776579052209854 0.0010433910647407174
3.270775778219104e-5 -0.0008148287888616325 0.0009969251696020365
3.0274881282821298e-5 -0.0007551824674010277 0.0009477885905653239
2.6943627744913098e-5 -0.0007040336495265365 0.0008915218058973551
2.1934773030807264e-5 -0.0006650787545368075 0.0008250231039710342
1.506981334387092e-5 -0.0006411998183466494 0.0007458740728907287
6.568267963302787e-6 -0.0006357001839205623 0.0006513030384667218
-3.061904180867714e-6 -0.0006504251505248249 0.0005397616187110543
-1.3021096492593642e-5 -0.0006828521727584302 0.00041336633148603136
-2.2314161469694227e-5 -0.0007253864896483719 0.000278490042546764
-2.9934990379842926e-5 -0.0007665104931220412 0.00014479712990578264
-3.506556458887644e-5 -0.0007929006824269891 2.346735891478602e-5
-3.721884422702715e-5 -0.0007918250630609691 -7.481583452317864e-5
-1.8757042198558338e-5 -0.0003914704720955342 -5.8477031416259706e-5

CELL_DATA 50

VECTORS liftinglineloading               float
0.06655430048704147 -0.055601179599761956 -0.055601179599761956
0.032812345772981644 -0.039384625852108 -0.039384625852108
0.020746996626257896 -0.04093917831778526 -0.04093917831778526
0.1838866025209427 -0.07686261087656021 -0.07686261087656021
-0.09695016592741013 -0.16372241079807281 -0.16372241079807281
-0.7714207768440247 -0.30835071206092834 -0.30835071206092834
-2.028858184814453 -0.5837337374687195 -0.5837337374687195
-3.264419317245484 -0.8170227408409119 -0.8170227408409119
-4.346252918243408 -1.0117253065109253 -1.0117253065109253
-5.745654582977295 -1.231123924255371 -1.231123924255371
-7.048036098480225 -1.408821702003479 -1.408821702003479
-8.384218215942383 -1.5867631435394287 -1.5867631435394287
-9.320944786071777 -1.7034232616424563 -1.7034232616424563
-9.949674606323242 -1.7480740547180174 -1.7480740547180174
-10.379182815551758 -1.7484843730926511 -1.7484843730926511
-11.216081619262695 -1.7874001264572144 -1.7874001264572144
-11.497952461242676 -1.7441729307174683 -1.7441729307174683
-12.145753860473633 -1.7696278095245364 -1.7696278095245364
-12.458641052246094 -1.7357723712921145 -1.7357723712921145
-12.948873519897461 -1.7412045001983643 -1.7412045001983643
-13.142942428588867 -1.7188808917999268 -1.7188808917999268
-13.523191452026367 -1.705857276916504 -1.705857276916504
-13.366751670837402 -1.6088261604309082 -1.6088261604309082
-13.514218330383303 -1.5750720500946045 -1.5750720500946045
-13.57109069824219 -1.5119664669036865 -1.5119664669036865
-13.773732185363771 -1.4732314348220825 -1.4732314348220825
-14.12919044494629 -1.4548252820968628 -1.4548252820968628
-14.330101013183594 -1.4113383293151855 -1.4113383293151855
-14.489619255065918 -1.3848830461502075 -1.3848830461502075
-14.696821212768553 -1.3336492776870728 -1.3336492776870728
-15.371028900146484 -1.303800106048584 -1.303800106048584
-15.765559196472168 -1.24819016456604 -1.24819016456604
-16.322751998901367 -1.1853471994400024 -1.1853471994400024
-16.48961067199707 -1.1116315126419067 -1.1116315126419067
-16.36928939819336 -1.050163984298706 -1.050163984298706
-16.378692626953125 -1.0049859285354614 -1.0049859285354614
-16.387165069580078 -0.9617071151733398 -0.9617071151733398
-16.154094696044922 -0.938771665096283 -0.938771665096283
-15.9352331161499 -0.9326939582824707 -0.9326939582824707
-15.52433109283447 -0.9252395033836366 -0.9252395033836366
-15.307912826538086 -0.9190375208854674 -0.9190375208854674
-14.297330856323242 -0.8848913311958313 -0.8848913311958313
-12.893518447875977 -0.9909848570823669 -0.9909848570823669
-10.987215995788574 -0.9706044793128967 -0.9706044793128967
-9.241862297058105 -1.1094666719436646 -1.1094666719436646
-7.414695739746094 -1.1683344841003418 -1.1683344841003418
-5.767184257507324 -1.1303504705429077 -1.1303504705429077
-4.1633195877075195 -1.034277081489563 -1.034277081489563
-2.7702181339263916 -0.9254260659217834 -0.9254260659217834
-1.275017261505127 -0.817762851715088 -0.817762851715088