# vtk DataFile Version 4.0
 
ASCII
DATASET UNSTRUCTURED_GRID
POINTS 51 float
0.002990470267832279 -0.004054973367601633 -0.006240000016987324
0.002663540421053767 -0.004133325070142746 -0.01037672720849514
0.0024158067535609007 -0.00436954852193594 -0.014437473379075527
0.0021610232070088387 -0.004471102729439735 -0.018422240391373634
0.0018239807104691865 -0.004597779363393784 -0.022331025451421738
0.0014375883620232344 -0.004778776317834854 -0.026163829490542415
0.0011537274112924933 -0.0047485181130468845 -0.029920652508735657
0.0011058691889047623 -0.004666366148740053 -0.03360149636864662
0.0012308575678616762 -0.0047446065582334995 -0.03720635920763016
0.0014622097369283438 -0.004675185773521662 -0.040735241025686264
0.0017137653194367886 -0.00457720784470439 -0.04418814182281494
0.0019408058142289517 -0.004573742393404245 -0.04756506159901619
0.0021194086875766516 -0.004566395655274391 -0.05086600035429001
0.0022329261992126703 -0.004495937842875719 -0.054090958088636405
0.0022873322013765574 -0.00438546109944582 -0.05723993852734566
0.002315010642632842 -0.004287390038371086 -0.06031293421983719
0.0023268242366611958 -0.004235195927321911 -0.06330995261669159
0.002347409725189209 -0.004236594773828983 -0.06623098999261856
0.002370904665440321 -0.004264169838279486 -0.0690760463476181
0.002401149133220315 -0.0042849136516451836 -0.07184511423110962
0.0024429464247077703 -0.004278013948351145 -0.0745382085442543
0.0024758127983659506 -0.004238960798829794 -0.07715532183647156
0.0025140612851828337 -0.004184406250715256 -0.07969645410776138
0.0025619138032197952 -0.004131791181862354 -0.08216160535812378
0.0026071176398545504 -0.0040924279019236565 -0.08455078303813934
0.0026486441493034363 -0.004074783064424992 -0.08686397224664688
0.0026914223562926054 -0.00408297311514616 -0.08910118043422699
0.0027327577117830515 -0.004114799667149782 -0.09126240760087967
0.0027675682213157415 -0.0041632819920778275 -0.09334765374660492
0.0027959367725998163 -0.004218683578073978 -0.09535692632198334
0.002822769805788994 -0.004270554985851049 -0.09729021042585373
0.002852949546650052 -0.00431009940803051 -0.09914752095937729
0.0028871840331703424 -0.004331696312874556 -0.10092884302139282
0.0029206497129052877 -0.004333601798862219 -0.10263418406248094
0.0029517675284296274 -0.004318983294069767 -0.10426355153322218
0.0029838785994797945 -0.004295401740819216 -0.10581693798303606
0.003018902847543359 -0.004272960126399994 -0.10729433596134187
0.0030546479392796755 -0.004262115340679884 -0.10869576036930083
0.0030884870793670416 -0.004269667901098728 -0.1100212037563324
0.0031200633384287357 -0.004295347724109888 -0.11127065867185593
0.0031490367837250233 -0.004331114701926708 -0.11244414001703264
0.003173950593918562 -0.004362823907285929 -0.11354164034128189
0.003192906267940998 -0.004372783936560154 -0.11456315964460372
0.003204090287908912 -0.004339326173067093 -0.11550869792699814
0.0032060428056865926 -0.004236133769154549 -0.11637825518846512
0.0031979666091501713 -0.004036720842123032 -0.11717183142900467
0.0031800006981939077 -0.003721357323229313 -0.11788942664861679
0.003153338097035885 -0.0032833842560648914 -0.11853104084730147
0.0031201306264847517 -0.0027331425808370113 -0.11909667402505875
0.003083207178860903 -0.0020987591706216335 -0.11958632618188858
0.003045693039894104 -0.0014238149160519242 -0.11999999731779097

CELLS 50 150
2 0 1
2 1 2
2 2 3
2 3 4
2 4 5
2 5 6
2 6 7
2 7 8
2 8 9
2 9 10
2 10 11
2 11 12
2 12 13
2 13 14
2 14 15
2 15 16
2 16 17
2 17 18
2 18 19
2 19 20
2 20 21
2 21 22
2 22 23
2 23 24
2 24 25
2 25 26
2 26 27
2 27 28
2 28 29
2 29 30
2 30 31
2 31 32
2 32 33
2 33 34
2 34 35
2 35 36
2 36 37
2 37 38
2 38 39
2 39 40
2 40 41
2 41 42
2 42 43
2 43 44
2 44 45
2 45 46
2 46 47
2 47 48
2 48 49
2 49 50

CELL_TYPES 50
4
4
4
4
4
4
4
4
4
4
4
4
4
4
4
4
4
4
4
4
4
4
4
4
4
4
4
4
4
4
4
4
4
4
4
4
4
4
4
4
4
4
4
4
4
4
4
4
4
4

POINT_DATA 51

SCALARS zone float
LOOKUP_TABLE default
1.0
1.0
1.0
1.0
1.0
1.0
1.0
1.0
1.0
1.0
1.0
1.0
1.0
1.0
1.0
1.0
1.0
1.0
1.0
1.0
1.0
1.0
1.0
1.0
1.0
1.0
1.0
1.0
1.0
1.0
1.0
1.0
1.0
1.0
1.0
1.0
1.0
1.0
1.0
1.0
1.0
1.0
1.0
1.0
1.0
1.0
1.0
1.0
1.0
1.0
1.0

VECTORS normals float
-0.00016346495249308646 -3.917586582247168e-5 -0.002068363595753908
-0.00028733181534335017 -0.0001572876499267295 -0.004098737146705389
-0.0002512586652301252 -0.0001688887714408338 -0.00402275612577796
-0.0002959130215458572 -0.00011411542800487952 -0.003946775570511818
-0.0003617173351813108 -0.0001538368233013898 -0.0038707947824150324
-0.000335126620484516 -7.53693821025081e-5 -0.003794813994318247
-0.00016585958655923605 5.620517913484946e-5 -0.003718833439052105
3.856507100863382e-5 1.9558240182959707e-6 -0.0036428526509553194
0.00017817027401179075 -4.4098615035181865e-6 -0.003566872095689177
0.0002414538903394714 8.369932766072452e-5 -0.0034908913075923915
0.00023929805320221928 5.07217446283903e-5 -0.003414910519495607
0.00020282164041418582 5.406232048699167e-6 -0.003338929964229465
0.0001460601488361135 3.8902122469153255e-5 -0.003262949176132679
8.396180783165619e-5 9.046726336237043e-5 -0.0031869683880358934
4.104220715817064e-5 0.00010427402594359592 -0.0031109878327697515
1.9746014004340395e-5 7.513265882153064e-5 -0.003035007044672966
1.6199513993342407e-5 2.539750494179316e-5 -0.0029590262565761805
2.2040156181901693e-5 -1.4487103726423811e-5 -0.0028830457013100386
2.6869760404224508e-5 -2.4159277018043213e-5 -0.002807064913213253
3.6020985135110095e-5 -6.922104148543439e-6 -0.0027310841251164675
3.733187259058468e-5 2.2976237232796848e-5 -0.0026551035698503256
3.555733201210387e-5 4.680394704337232e-5 -0.00257912278175354
4.305047696107067e-5 5.358497583074495e-5 -0.002503142226487398
4.652824645745568e-5 4.598908708430827e-5 -0.0024271614383906126
4.336517667979933e-5 2.8504067813628357e-5 -0.002351180650293827
4.2152376408921555e-5 4.7275434553739615e-6 -0.002275200095027685
4.205681398161687e-5 -2.0008332285215147e-5 -0.0021992193069308996
3.8072852476034313e-5 -4.015445301774889e-5 -0.002123238518834114
3.158946492476389e-5 -5.194206823944114e-5 -0.002047257963567972
2.760080860753078e-5 -5.363656964618713e-5 -0.0019712771754711866
2.850641067198012e-5 -4.570791861624457e-5 -0.0018952965037897231
3.2207175536314026e-5 -3.057073263335042e-5 -0.0018193157156929374
3.3850083127617836e-5 -1.1751208148780279e-5 -0.0017433350440114737
3.2291711249854416e-5 6.356615358527051e-6 -0.00166735437233001
3.161442145938054e-5 1.910006358230021e-5 -0.0015913737006485462
3.356763409101404e-5 2.3011656594462693e-5 -0.0015153929125517607
3.538468081387691e-5 1.6643167327856645e-5 -0.001439412240870297
3.4792101359926164e-5 1.6461082168461871e-6 -0.0013634315691888332
3.270775778219104e-5 -1.6616108041489497e-5 -0.0012874507810920477
3.0274881282821298e-5 -3.0723433155799285e-5 -0.001211470109410584
2.6943627744913098e-5 -3.373807339812629e-5 -0.0011354894377291203
2.1934773030807264e-5 -2.083475010294933e-5 -0.0010595087660476565
1.506981334387092e-5 1.1748934412025847e-5 -0.000983527977950871
6.568267963302787e-6 6.832506915088743e-5 -0.0009075473062694074
-3.061904180867714e-6 0.00015130246174521744 -0.0008315665763802826
-1.3021096492593642e-5 0.00025738836848177016 -0.0007555859046988189
-2.2314161469694227e-5 0.0003766683512367308 -0.0006796051748096943
-2.9934990379842926e-5 0.0004941073129884899 -0.0006036245031282306
-3.506556458887644e-5 0.000592312659136951 -0.0005276437732391059
-3.721884422702715e-5 0.0006546638906002045 -0.0004516630724538117
-1.8757042198558338e-5 0.0003374720981810242 -0.00020683636830653995

CELL_DATA 50

VECTORS liftinglineloading               float
0.14233224093914032 0.1305047571659088 0.011417686007916927
0.21754582226276398 0.22787636518478394 0.01993659883737564
-0.1508534699678421 0.07754074782133102 0.006783936172723769
0.019216930493712425 0.08429133892059326 0.007374536711722613
0.4102557003498078 0.08076665550470352 0.007066166494041681
-0.02259955368936062 0.2313748449087143 0.02024267613887787
-1.1257638931274414 0.6123175621032715 0.05357084795832634
-2.3550865650177 0.957919180393219 0.0838070660829544
-3.791550636291504 1.3474279642105103 0.11788467317819594
-5.247600555419922 1.6820297241210938 0.14715853333473206
-6.680033206939697 1.9688515663146973 0.17225219309329987
-8.138592720031738 2.2415337562561035 0.19610880315303802
-9.079760551452637 2.406529664993286 0.2105440646409988
-9.667194366455078 2.46433424949646 0.21560131013393402
-9.99788761138916 2.4489285945892334 0.21425348520278933
-10.857122421264648 2.510991096496582 0.2196832597255707
-11.16948127746582 2.4568824768066406 0.214949369430542
-11.78498649597168 2.4920742511749268 0.2180282324552536
-12.076451301574707 2.451798677444458 0.21450458467006683
-12.558944702148438 2.4631175994873047 0.2154948562383652
-12.749595642089844 2.432637929916382 0.21282823383808136
-13.403340339660646 2.4273681640625 0.21236719191074374
-13.333498001098633 2.292938232421875 0.200606107711792
-13.5221586227417 2.245103120803833 0.1964210867881775
-13.616744041442871 2.1565561294555664 0.1886742115020752
-13.843708992004395 2.1011648178100586 0.18382810056209564
-14.204216957092285 2.0734355449676514 0.18140210211277008
-14.449297904968262 2.010948419570923 0.17593517899513245
-14.55504035949707 1.9711419343948364 0.17245256900787354
-14.701500892639162 1.8968907594680788 0.16595643758773804
-15.27480220794678 1.856253981590271 0.16240118443965912
-15.586295127868654 1.7802505493164065 0.15575174987316132
-16.02213478088379 1.6910847425460815 0.14795073866844177
-16.107725143432617 1.5936493873596191 0.13942626118659973
-15.922558784484865 1.5089503526687622 0.13201604783535004
-15.932612419128418 1.4439374208450317 0.12632815539836884
-15.847495079040527 1.3825098276138306 0.12095393240451813
-15.572876930236816 1.350691795349121 0.11817022413015366
-15.28964900970459 1.339454174041748 0.11718705296516418
-14.983455657958986 1.3234939575195312 0.1157907173037529
-14.792257308959961 1.3138350248336792 0.1149456724524498
-13.798576354980469 1.2632533311843872 0.11052034050226212
-12.471136093139648 1.4010517597198486 0.12257613986730577
-10.542842864990234 1.3610858917236328 0.11907958984375
-8.85957145690918 1.5404272079467773 0.13476991653442383
-7.055553913116454 1.6208990812301636 0.14181029796600342
-5.470615863800049 1.5642772912979126 0.13685652613639832
-3.9310429096221924 1.4287817478179932 0.1250022053718567
-2.6038436889648438 1.2764431238174438 0.11167430877685547
-1.1885522603988647 1.1271260976791382 0.09861075133085251