# vtk DataFile Version 4.0
 
ASCII
DATASET UNSTRUCTURED_GRID
POINTS 51 float
0.002990470267832279 0.002909804694354534 0.006849339231848718
0.002663540421053767 0.0022686307784169912 0.010936825536191463
0.0024158067535609007 0.00179612438660115 0.014976900070905684
0.0021610232070088387 0.0012041882146149874 0.01891876384615898
0.0018239807104691865 0.0006501871976070106 0.02279016189277172
0.0014375883620232344 0.00016287471225950867 0.02659616805613041
0.0011537274112924933 -0.000519289227668196 0.030290663242340084
0.0011058691889047623 -0.0012393651995807886 0.03390131890773773
0.0012308575678616762 -0.0017882909160107374 0.03746500238776207
0.0014622097369283438 -0.002469441154971719 0.04092821851372719
0.0017137653194367886 -0.0031655202619731426 0.04431164637207985
0.0019408058142289517 -0.0037553294096142054 0.04763666167855263
0.0021194086875766516 -0.0043357666581869125 0.05088617652654648
0.0022329261992126703 -0.00496516190469265 0.054049909114837646
0.0022873322013765574 -0.0056207748129963875 0.05713186040520668
0.002315010642632842 -0.006250976584851742 0.06014114245772362
0.0023268242366611958 -0.0068228039890527725 0.06308356672525406
0.002347409725189209 -0.007328658830374479 0.06596046686172485
0.002370904665440321 -0.007795541547238828 0.06876708567142487
0.002401149133220315 -0.008255957625806332 0.07149769365787506
0.0024429464247077703 -0.008730403147637844 0.07414867728948593
0.0024758127983659506 -0.009223319590091705 0.0767192468047142
0.0025140612851828337 -0.00971830915659666 0.07921230047941208
0.0025619138032197952 -0.010198193602263927 0.08163087069988251
0.0026071176398545504 -0.010651834309101105 0.08397690951824188
0.0026486441493034363 -0.011070892214775085 0.0862518921494484
0.0026914223562926054 -0.011451314203441143 0.08845653384923935
0.0027327577117830515 -0.011795264668762684 0.0905904546380043
0.0027675682213157415 -0.01210961863398552 0.09265244007110596
0.0027959367725998163 -0.012403964065015316 0.0946408063173294
0.002822769805788994 -0.012688592076301576 0.0965537279844284
0.002852949546650052 -0.012972166761755943 0.09838968515396118
0.0028871840331703424 -0.013260221108794214 0.10014770179986954
0.0029206497129052877 -0.013554475270211695 0.1018274649977684
0.0029517675284296274 -0.013851807452738285 0.10342954099178314
0.0029838785994797945 -0.0141447726637125 0.10495522618293761
0.003018902847543359 -0.014423422515392303 0.1064062863588333
0.0030546479392796755 -0.014677456580102442 0.10778453201055527
0.0030884870793670416 -0.014900179579854012 0.10909115523099899
0.0031200633384287357 -0.0150918560102582 0.11032608896493912
0.0031490367837250233 -0.015260404907166958 0.11148795485496522
0.003173950593918562 -0.015419756062328817 0.11257428675889969
0.003192906267940998 -0.015587331727147102 0.11358201503753662
0.003204090287908912 -0.015784472227096558 0.11450737714767457
0.0032060428056865926 -0.016037093475461006 0.11534580588340758
0.0031979666091501713 -0.01637127995491028 0.11609269678592682
0.0031800006981939077 -0.01680646277964115 0.11674463003873825
0.003153338097035885 -0.01734919659793377 0.11730044335126877
0.0031201306264847517 -0.017989300191402435 0.11776193231344223
0.003083207178860903 -0.018699074164032936 0.11813398450613022
0.003045693039894104 -0.019435597583651543 0.11842416971921921

CELLS 50 150
2 0 1
2 1 2
2 2 3
2 3 4
2 4 5
2 5 6
2 6 7
2 7 8
2 8 9
2 9 10
2 10 11
2 11 12
2 12 13
2 13 14
2 14 15
2 15 16
2 16 17
2 17 18
2 18 19
2 19 20
2 20 21
2 21 22
2 22 23
2 23 24
2 24 25
2 25 26
2 26 27
2 27 28
2 28 29
2 29 30
2 30 31
2 31 32
2 32 33
2 33 34
2 34 35
2 35 36
2 36 37
2 37 38
2 38 39
2 39 40
2 40 41
2 41 42
2 42 43
2 43 44
2 44 45
2 45 46
2 46 47
2 47 48
2 48 49
2 49 50

CELL_TYPES 50
4
4
4
4
4
4
4
4
4
4
4
4
4
4
4
4
4
4
4
4
4
4
4
4
4
4
4
4
4
4
4
4
4
4
4
4
4
4
4
4
4
4
4
4
4
4
4
4
4
4

POINT_DATA 51

SCALARS zone float
LOOKUP_TABLE default
1.0
1.0
1.0
1.0
1.0
1.0
1.0
1.0
1.0
1.0
1.0
1.0
1.0
1.0
1.0
1.0
1.0
1.0
1.0
1.0
1.0
1.0
1.0
1.0
1.0
1.0
1.0
1.0
1.0
1.0
1.0
1.0
1.0
1.0
1.0
1.0
1.0
1.0
1.0
1.0
1.0
1.0
1.0
1.0
1.0
1.0
1.0
1.0
1.0
1.0
1.0

VECTORS normals float
-0.00016346495249308646 -0.0003205868706572801 0.002043743385002017
-0.00028733181534335017 -0.0005568400956690311 0.004063780419528484
-0.0002512586652301252 -0.0005322213401086628 0.003990968689322472
-0.0002959130215458572 -0.0005729686236009002 0.003906630910933018
-0.0003617173351813108 -0.000520656758453697 0.0038387021049857135
-0.000335126620484516 -0.0005847382126376033 0.003750250209122896
-0.00016585958655923605 -0.000701119948644191 0.0036525761242955923
3.856507100863382e-5 -0.0006345008150674403 0.0035871700383722786
0.00017817027401179075 -0.0006150379776954651 0.003513448871672153
0.0002414538903394714 -0.0006886146729812026 0.003423322457820177
0.00023929805320221928 -0.0006429441855289042 0.003354222746565938
0.00020282164041418582 -0.000585123198106885 0.003287265310063958
0.0001460601488361135 -0.0006049163057468832 0.0032066223211586475
8.396180783165619e-5 -0.0006425041356123984 0.0031228417064994574
4.104220715817064e-5 -0.0006429072236642241 0.003045617835596204
1.9746014004340395e-5 -0.0006010146462358534 0.0029758517630398273
1.6199513993342407e-5 -0.0005388411809690297 0.0029096619691699743
2.2040156181901693e-5 -0.0004863686044700444 0.0028417613357305527
2.6869760404224508e-5 -0.0004636494559235871 0.002768614562228322
3.6020985135110095e-5 -0.0004674308584071696 0.0026907948777079582
3.733187259058468e-5 -0.00048368106945417816 0.0026107768062502146
3.555733201210387e-5 -0.0004939528880640864 0.002531812759116292
4.305047696107067e-5 -0.00048743697698228067 0.0024558089207857847
4.652824645745568e-5 -0.00046676257625222206 0.0023823014926165342
4.336517667979933e-5 -0.0004363492771517486 0.0023105114232748747
4.2152376408921555e-5 -0.00039974006358534103 0.0022398135624825954
4.205681398161687e-5 -0.00036218605237081647 0.002169282641261816
3.8072852476034313e-5 -0.00032915209885686636 0.0020979545079171658
3.158946492476389e-5 -0.00030434963991865516 0.002025175141170621
2.760080860753078e-5 -0.00028948698309250176 0.001950642908923328
2.850641067198012e-5 -0.0002841012610588223 0.0018744397675618527
3.2207175536314026e-5 -0.00028581457445397973 0.001796984812244773
3.3850083127617836e-5 -0.0002911542833317071 0.0017188905039802194
3.2291711249854416e-5 -0.000295793084660545 0.0016409197123721244
3.161442145938054e-5 -0.0002951490168925375 0.0015638804761692882
3.356763409101404e-5 -0.0002858072693925351 0.0014883747790008783
3.538468081387691e-5 -0.00026634163805283606 0.0014146543107926846
3.4792101359926164e-5 -0.00023837850312702358 0.0013424321077764034
3.270775778219104e-5 -0.00020719981694128367 0.0012707769637927413
3.0274881282821298e-5 -0.00018011291103903204 0.0011984002776443958
2.6943627744913098e-5 -0.0001639501570025459 0.001124097383581102
2.1934773030807264e-5 -0.0001634635409573093 0.0010470303241163492
1.506981334387092e-5 -0.00018235828611068428 0.000966545834671706
6.568267963302787e-6 -0.00022488099057227373 0.0008818951318971813
-3.061904180867714e-6 -0.00029340386390686035 0.0007926598191261292
-1.3021096492593642e-5 -0.00038468415732495487 0.0006994118448346853
-2.2314161469694227e-5 -0.0004889580886811018 0.0006038727005943656
-2.9934990379842926e-5 -0.0005914189969189465 0.0005086532328277826
-3.506556458887644e-5 -0.0006749384920112789 0.00041677369154058397
-3.721884422702715e-5 -0.0007231485215015709 0.00033112012897618115
-1.8757042198558338e-5 -0.000368261884432286 0.00014509263564832509

CELL_DATA 50

VECTORS liftinglineloading               float
0.052111230790615075 -0.06662064045667648 -0.01785094663500786
-0.016952795907855034 -0.006778636947274208 -0.0018163302447646856
0.0654706209897995 -0.07196998596191406 -0.01928429864346981
0.07925523817539215 -0.143993079662323 -0.038582831621170044
-0.2384820282459259 -0.2619943618774414 -0.07020118087530136
-0.9957385063171386 -0.48459884524345404 -0.12984786927700043
-2.2839319705963135 -0.8562110662460327 -0.22942106425762177
-3.394285202026367 -1.1488784551620483 -0.30784106254577637
-4.389655113220215 -1.399295687675476 -0.3749401569366455
-5.688626289367676 -1.6841918230056763 -0.45127785205841064
-6.891945362091065 -1.915458798408508 -0.5132456421852112
-8.155213356018066 -2.150397539138794 -0.5761973261833191
-9.036911964416504 -2.306046962738037 -0.6179034113883972
-9.565025329589844 -2.3564112186431885 -0.6313984990119934
-9.944808959960938 -2.3492236137390137 -0.6294726133346558
-10.791289329528809 -2.4087624549865723 -0.6454259157180786
-11.115826606750488 -2.3587944507598877 -0.6320371031761169
-11.743875503540039 -2.394829511642456 -0.6416926383972168
-12.04660415649414 -2.3564178943634033 -0.6314002871513367
-12.528207778930664 -2.3675787448883057 -0.6343907713890076
-12.708843231201172 -2.338343858718872 -0.6265573501586914
-13.070847511291502 -2.320037603378296 -0.6216522455215454
-12.934636116027832 -2.190213680267334 -0.5868659615516663
-13.054780006408691 -2.143056631088257 -0.5742303133010864
-13.11106014251709 -2.061924695968628 -0.5524910688400269
-13.315092086791992 -2.012583017349243 -0.5392699837684631
-14.791297912597656 -2.0129432678222656 -0.5393665432929993
-15.054128646850584 -1.9518488645553587 -0.5229963064193726
-15.205534934997559 -1.9118008613586428 -0.5122655034065247
-15.409306526184082 -1.8360749483108523 -0.491974800825119
-15.98758602142334 -1.7856795787811282 -0.4784713983535767
-16.353471755981445 -1.7033494710922243 -0.4564111232757569
-16.945890426635742 -1.6170181035995483 -0.4332786798477173
-17.097379684448242 -1.508690357208252 -0.4042523503303528
-16.957908630371094 -1.423255205154419 -0.38136008381843567
-16.933320999145508 -1.3618229627609253 -0.3648993670940399
-16.927953720092773 -1.3045486211776733 -0.3495527505874634
-16.655492782592773 -1.2742754220962524 -0.3414410650730133
-16.420299530029297 -1.268559217453003 -0.3399094045162201
-16.1586971282959 -1.2565934658050537 -0.33670318126678467
-15.908253669738768 -1.249177098274231 -0.33471599221229553
-14.865674018859863 -1.2049298286437988 -0.3228599727153778
-13.38640022277832 -1.360815405845642 -0.3646293878555298
-11.432059288024902 -1.3400981426239014 -0.35907819867134094
-9.633980751037598 -1.5414232015609741 -0.41302311420440674
-7.786786556243897 -1.6234928369522097 -0.4350135922431945
-6.083508491516113 -1.5734455585479736 -0.4216034710407257
-4.426578521728516 -1.4427220821380615 -0.38657623529434204
-2.9688055515289307 -1.2917369604110718 -0.34611988067626953
-1.3743789196014404 -1.141524314880371 -0.30587053298950195