# vtk DataFile Version 4.0
 
ASCII
DATASET UNSTRUCTURED_GRID
POINTS 51 float
0.002990470267832279 -0.0002574771933723241 0.007437346037477256
0.002663540421053767 -0.0025660244282335043 0.010870895348489285
0.0024158067535609007 -0.004701670259237289 0.014332756400108337
0.0021610232070088387 -0.006904049776494504 0.017655134201049805
0.0018239807104691865 -0.009042269550263882 0.02092968299984932
0.0014375883620232344 -0.01109241135418415 0.024173147976398468
0.0011537274112924933 -0.013272022828459738 0.027233202010393143
0.0011058691889047623 -0.015450563281774521 0.030201252549886703
0.0012308575678616762 -0.017454136162996292 0.03319906070828438
0.0014622097369283438 -0.019535085186362267 0.03604993224143982
0.0017137653194367886 -0.021595846861600876 0.03882218524813652
0.0019408058142289517 -0.023535607382655144 0.04158640652894974
0.0021194086875766516 -0.025434967130422596 0.04428616538643837
0.0022329261992126703 -0.02734244242310524 0.046887483447790146
0.0022873322013765574 -0.029239119961857796 0.049403607845306396
0.002315010642632842 -0.031082054600119594 0.051864609122276306
0.0023268242366611958 -0.032843828201293945 0.05428968369960785
0.002347409725189209 -0.03451811894774437 0.056683260947465904
0.002370904665440321 -0.03612738847732544 0.059029608964920044
0.002401149133220315 -0.03769867122173309 0.061309799551963806
0.0024429464247077703 -0.03924901783466339 0.06351189315319061
0.0024758127983659506 -0.04078212380409241 0.06563331186771393
0.0025140612851828337 -0.042284343391656876 0.06768359243869781
0.0025619138032197952 -0.04374139755964279 0.06967274844646454
0.0026071176398545504 -0.045144014060497284 0.07160726189613342
0.0026486441493034363 -0.046485260128974915 0.07349199801683426
0.0026914223562926054 -0.04776176065206528 0.07532931119203568
0.0027327577117830515 -0.048975322395563126 0.07711794227361679
0.0027675682213157415 -0.050131656229496 0.07885388284921646
0.0027959367725998163 -0.05123874172568322 0.08053155988454819
0.002822769805788994 -0.052305139601230614 0.08214496821165085
0.002852949546650052 -0.05333805456757546 0.08368906378746033
0.0028871840331703424 -0.054342087358236306 0.08516062796115875
0.0029206497129052877 -0.055318672209978104 0.08655865490436554
0.0029517675284296274 -0.05626521259546279 0.08788497000932693
0.0029838785994797945 -0.05717551335692405 0.08914390206336975
0.003018902847543359 -0.058041300624608994 0.0903412476181984
0.0030546479392796755 -0.05885400623083114 0.09148300439119339
0.0030884870793670416 -0.059608060866594315 0.09257306903600693
0.0031200633384287357 -0.06030368804931641 0.09361129999160767
0.0031490367837250233 -0.060947466641664505 0.09459307044744492
0.003173950593918562 -0.06155099347233773 0.09551028162240982
0.003192906267940998 -0.06212875247001648 0.09635277092456818
0.003204090287908912 -0.06269849836826324 0.09710811823606491
0.0032060428056865926 -0.06328178942203522 0.09776122868061066
0.0031979666091501713 -0.06390031427145004 0.09829691052436829
0.0031800006981939077 -0.06457024067640305 0.09870384633541107
0.003153338097035885 -0.06529702246189117 0.09897821396589279
0.0031201306264847517 -0.06607218831777573 0.0991259515285492
0.003083207178860903 -0.06687269359827042 0.09916318207979202
0.003045693039894104 -0.06766285002231598 0.09911490976810455

CELLS 50 150
2 0 1
2 1 2
2 2 3
2 3 4
2 4 5
2 5 6
2 6 7
2 7 8
2 8 9
2 9 10
2 10 11
2 11 12
2 12 13
2 13 14
2 14 15
2 15 16
2 16 17
2 17 18
2 18 19
2 19 20
2 20 21
2 21 22
2 22 23
2 23 24
2 24 25
2 25 26
2 26 27
2 27 28
2 28 29
2 29 30
2 30 31
2 31 32
2 32 33
2 33 34
2 34 35
2 35 36
2 36 37
2 37 38
2 38 39
2 39 40
2 40 41
2 41 42
2 42 43
2 43 44
2 44 45
2 45 46
2 46 47
2 47 48
2 48 49
2 49 50

CELL_TYPES 50
4
4
4
4
4
4
4
4
4
4
4
4
4
4
4
4
4
4
4
4
4
4
4
4
4
4
4
4
4
4
4
4
4
4
4
4
4
4
4
4
4
4
4
4
4
4
4
4
4
4

POINT_DATA 51

SCALARS zone float
LOOKUP_TABLE default
1.0
1.0
1.0
1.0
1.0
1.0
1.0
1.0
1.0
1.0
1.0
1.0
1.0
1.0
1.0
1.0
1.0
1.0
1.0
1.0
1.0
1.0
1.0
1.0
1.0
1.0
1.0
1.0
1.0
1.0
1.0
1.0
1.0
1.0
1.0
1.0
1.0
1.0
1.0
1.0
1.0
1.0
1.0
1.0
1.0
1.0
1.0
1.0
1.0
1.0
1.0

VECTORS normals float
-0.00016346495249308646 -0.0011542736319825053 0.001716774655506015
-0.00028733181534335017 -0.0022220963146537542 0.0034477051813155413
-0.0002512586652301252 -0.0021690125577151775 0.0033921196591109037
-0.0002959130215458572 -0.002170299645513296 0.0032984630670398474
-0.0003617173351813108 -0.0020941810216754675 0.0032590066548436884
-0.000335126620484516 -0.0021148768719285727 0.0031517597381025553
-0.00016585958655923605 -0.0021790757309645414 0.003014052053913474
3.856507100863382e-5 -0.002091056667268276 0.002982928417623043
0.00017817027401179075 -0.00204226141795516 0.002924339845776558
0.0002414538903394714 -0.002070855349302292 0.0028115627355873585
0.00023929805320221928 -0.0020002610981464386 0.0027682380750775337
0.00020282164041418582 -0.0019195600179955361 0.0027319903019815683
0.0001460601488361135 -0.001903417520225048 0.0026505382265895605
8.396180783165619e-5 -0.0019020764157176018 0.0025587219279259443
4.104220715817064e-5 -0.0018698055064305663 0.00248856283724308
1.9746014004340395e-5 -0.0018023536540567875 0.0024430379271507263
1.6199513993342407e-5 -0.0017180321738123896 0.0024093249812722206
2.2040156181901693e-5 -0.0016417799051851032 0.00236996216699481
2.6869760404224508e-5 -0.0015902761369943619 0.0023132702335715294
3.6020985135110095e-5 -0.001560815260745585 0.0022411434911191463
3.733187259058468e-5 -0.0015417258255183697 0.002161754760891199
3.555733201210387e-5 -0.001517663593403995 0.0020858480129390955
4.305047696107067e-5 -0.0014796375762671232 0.002019718987867236
4.652824645745568e-5 -0.0014298346359282732 0.0019618358928710222
4.336517667979933e-5 -0.0013719310518354177 0.0019096252508461475
4.2152376408921555e-5 -0.001308873645029962 0.0018610231345519423
4.205681398161687e-5 -0.0012450305512174964 0.001812971313484013
3.8072852476034313e-5 -0.0011849469738081098 0.0017622868763282895
3.158946492476389e-5 -0.0011317104799672961 0.0017068082233890893
2.760080860753078e-5 -0.0010867416858673096 0.0016455403529107573
2.850641067198012e-5 -0.0010496556060388684 0.0015787529991939664
3.2207175536314026e-5 -0.0010184745769947767 0.0015078309224918485
3.3850083127617836e-5 -0.000990309868939221 0.0014347967226058245
3.2291711249854416e-5 -0.0009615622111596167 0.0013621706748381257
3.161442145938054e-5 -0.0009284202824346721 0.0012926216004416347
3.356763409101404e-5 -0.0008880437235347926 0.0012281383387744427
3.538468081387691e-5 -0.0008392462041229009 0.0011695513967424631
3.4792101359926164e-5 -0.0007833806448616087 0.001115913619287312
3.270775778219104e-5 -0.0007248403271660209 0.0010641486151143909
3.0274881282821298e-5 -0.0006697035860270262 0.0010100004728883505
2.6943627744913098e-5 -0.0006236533517949283 0.0009494898258708418
2.1934773030807264e-5 -0.000590642390307039 0.000879849074408412
1.506981334387092e-5 -0.0005737526807934046 0.0007989200530573725
6.568267963302787e-6 -0.000576516380533576 0.0007042295765131712
-3.061904180867714e-6 -0.0006009067292325199 0.0005943959695287049
-1.3021096492593642e-5 -0.000644226442091167 0.00047130783786997204
-2.2314161469694227e-5 -0.0006983541534282267 0.00034065189538523555
-2.9934990379842926e-5 -0.0007509737624786794 0.00021105192718096075
-3.506556458887644e-5 -0.0007878381293267012 9.24839114304632e-5
-3.721884422702715e-5 -0.0007953325402922928 -5.519033948075958e-6
-1.8757042198558338e-5 -0.00039507742621935904 -2.4135608327924274e-5

CELL_DATA 50

VECTORS liftinglineloading               float
0.05181632563471794 -0.052643232047557824 -0.04417291656136513
-0.017344938591122627 -0.005265462677925825 -0.0044182478450238705
0.0655791237950325 -0.05724987015128136 -0.04803834483027458
0.07687435299158096 -0.11434382945299149 -0.09594586491584778
-0.2396813929080963 -0.20754405856132507 -0.17415013909339905
-0.9930897951126099 -0.3831932246685028 -0.3215373158454895
-2.270287036895752 -0.6757551431655884 -0.567025899887085
-3.366025924682617 -0.9053658246994019 -0.7596921324729919
-4.347302436828613 -1.1020499467849731 -0.9247296452522278
-5.621891975402832 -1.324641227722168 -1.1115059852600098
-6.801347255706786 -1.5055090188980103 -1.2632720470428467
-8.04032039642334 -1.688999056816101 -1.417238473892212
-8.897339820861816 -1.8100903034210205 -1.5188461542129517
-9.405713081359863 -1.8484195470809937 -1.5510082244873047
-9.757472038269043 -1.8400949239730835 -1.5440229177474976
-10.582876205444336 -1.8868184089660642 -1.583228588104248
-10.884505271911621 -1.8472788333892822 -1.550050973892212
-11.489819526672363 -1.8752238750457761 -1.5734996795654297
-11.779135704040527 -1.8470387458801267 -1.549849510192871
-12.253393173217773 -1.8570208549499514 -1.5582255125045776
-12.437843322753906 -1.8349863290786743 -1.5397363901138306
-12.809505462646484 -1.8213071823120117 -1.528258204460144
-12.710282325744629 -1.7213571071624758 -1.444390058517456
-12.857905387878418 -1.6855764389038086 -1.414366602897644
-12.946317672729492 -1.6237587928771973 -1.3624954223632812
-13.178706169128416 -1.5862514972686768 -1.331023097038269
-13.53734016418457 -1.5673800706863403 -1.3151880502700806
-13.794488906860352 -1.522689700126648 -1.2776883840560913
-13.959712028503418 -1.4961110353469849 -1.255386233329773
-14.200500488281252 -1.4440988302230835 -1.2117427587509155
-14.948530197143555 -1.4181932210922241 -1.1900054216384888
-15.43255615234375 -1.360713005065918 -1.1417738199234009
-16.04498291015625 -1.2910741567611694 -1.083339810371399
-16.29670524597168 -1.2122198343276978 -1.0171732902526855
-16.24913787841797 -1.1439162492752075 -0.9598597288131715
-16.28445816040039 -1.0937905311584473 -0.9177992343902588
-16.33123779296875 -1.0454169511795044 -0.8772090077400208
-16.12738609313965 -1.0196881294250488 -0.8556199073791503
-16.189699172973633 -1.0123229026794434 -0.849439799785614
-15.907992362976076 -1.0021785497665405 -0.8409277200698853
-15.65755271911621 -0.9958360195159912 -0.8356056213378906
-14.612504005432129 -0.9596226811408997 -0.8052190542221069
-13.152853965759276 -1.0789012908935547 -0.9053056836128235
-11.203657150268555 -1.0589847564697266 -0.8885936737060548
-9.414977073669434 -1.2131887674331665 -1.0179861783981323
-7.561474800109863 -1.2768462896347046 -1.0714012384414673
-5.875766277313232 -1.235115885734558 -1.0363852977752686
-4.242186069488525 -1.1301554441452026 -0.948313057422638
-2.8200323581695557 -1.0100665092468262 -0.8475464582443236
-1.291191577911377 -0.8912809491157532 -0.7478734850883484