# vtk DataFile Version 4.0
 
ASCII
DATASET UNSTRUCTURED_GRID
POINTS 51 float
0.002990470267832279 0.003376511856913566 -0.006631710100919007
0.002663540421053767 0.006919846870005131 -0.008767927996814251
0.0024158067535609007 0.010318445041775703 -0.011002876795828342
0.0021610232070088387 0.013718576170504093 -0.013083208352327347
0.0018239807104691865 0.017040345817804337 -0.015147306025028227
0.0014375883620232344 0.020269151777029037 -0.017220456153154373
0.0011537274112924933 0.023537786677479744 -0.01907266490161419
0.0011058691889047623 0.026766566559672352 -0.020841939374804497
0.0012308575678616762 0.029849348589777946 -0.02271212823688984
0.0014622097369283438 0.03294016048312187 -0.024416450411081314
0.0017137653194367886 0.03597944974899292 -0.026058048009872437
0.0019408058142289517 0.03890568017959595 -0.027743507176637646
0.0021194086875766516 0.04176805168390274 -0.029387615621089935
0.0022329261992126703 0.04459617659449577 -0.03093907609581947
0.0022873322013765574 0.04737851023674011 -0.032417889684438705
0.002315010642632842 0.05008883774280548 -0.03386945649981499
0.0023268242366611958 0.05271042883396149 -0.03532276302576065
0.002347409725189209 0.05523942038416863 -0.036784492433071136
0.002370904665440321 0.057689521461725235 -0.03823089972138405
0.002401149133220315 0.0600772388279438 -0.03963340446352959
0.0024429464247077703 0.06241297721862794 -0.040973976254463196
0.0024758127983659506 0.06469899415969849 -0.04224871098995209
0.0025140612851828337 0.06692695617675781 -0.04347202926874161
0.0025619138032197952 0.06908814609050751 -0.04465904086828232
0.0026071176398545504 0.0711769089102745 -0.04581953585147858
0.0026486441493034363 0.07318901270627975 -0.046960849314928055
0.0026914223562926054 0.0751224011182785 -0.04808655008673668
0.0027327577117830515 0.0769781619310379 -0.04919472709298134
0.0027675682213157415 0.0787598043680191 -0.05027933791279793
0.0027959367725998163 0.0804721787571907 -0.05133194848895073
0.002822769805788994 0.08212051540613174 -0.05234351381659508
0.002852949546650052 0.083709217607975 -0.05330641567707061
0.0028871840331703424 0.08524109423160553 -0.05421578139066696
0.0029206497129052877 0.08671700954437256 -0.05507010221481324
0.0029517675284296274 0.08813539147377014 -0.055872123688459396
0.0029838785994797945 0.08949245512485504 -0.05662839487195015
0.003018902847543359 0.09078314155340195 -0.05734765902161599
0.0030546479392796755 0.09200222790241241 -0.05803897976875305
0.0030884870793670416 0.09314632415771484 -0.05870823934674262
0.0031200633384287357 0.09421554207801819 -0.05935521051287651
0.0031490367837250233 0.09521392732858658 -0.05997292697429656
0.003173950593918562 0.0961485356092453 -0.060549136251211166
0.003192906267940998 0.0970282107591629 -0.06106851994991302
0.003204090287908912 0.09786380082368851 -0.06151231378316879
0.0032060428056865926 0.09866845607757568 -0.06185772642493248
0.0031979666091501713 0.09945542365312576 -0.06208181753754616
0.0031800006981939077 0.10023456066846848 -0.06216750293970108
0.003153338097035885 0.10100919753313065 -0.06210901588201523
0.0031201306264847517 0.1017741709947586 -0.061915308237075806
0.003083207178860903 0.10251541435718538 -0.06161074340343475
0.003045693039894104 0.10321114212274551 -0.06123305857181549

CELLS 50 150
2 0 1
2 1 2
2 2 3
2 3 4
2 4 5
2 5 6
2 6 7
2 7 8
2 8 9
2 9 10
2 10 11
2 11 12
2 12 13
2 13 14
2 14 15
2 15 16
2 16 17
2 17 18
2 18 19
2 19 20
2 20 21
2 21 22
2 22 23
2 23 24
2 24 25
2 25 26
2 26 27
2 27 28
2 28 29
2 29 30
2 30 31
2 31 32
2 32 33
2 33 34
2 34 35
2 35 36
2 36 37
2 37 38
2 38 39
2 39 40
2 40 41
2 41 42
2 42 43
2 43 44
2 44 45
2 45 46
2 46 47
2 47 48
2 48 49
2 49 50

CELL_TYPES 50
4
4
4
4
4
4
4
4
4
4
4
4
4
4
4
4
4
4
4
4
4
4
4
4
4
4
4
4
4
4
4
4
4
4
4
4
4
4
4
4
4
4
4
4
4
4
4
4
4
4

POINT_DATA 51

SCALARS zone float
LOOKUP_TABLE default
1.0
1.0
1.0
1.0
1.0
1.0
1.0
1.0
1.0
1.0
1.0
1.0
1.0
1.0
1.0
1.0
1.0
1.0
1.0
1.0
1.0
1.0
1.0
1.0
1.0
1.0
1.0
1.0
1.0
1.0
1.0
1.0
1.0
1.0
1.0
1.0
1.0
1.0
1.0
1.0
1.0
1.0
1.0
1.0
1.0
1.0
1.0
1.0
1.0
1.0
1.0

VECTORS normals float
-0.00016346495249308646 0.001771667506545782 -0.0010681090643629432
-0.00028733181534335017 0.0034709663596004248 -0.0021855835802853107
-0.0002512586652301252 0.003399364650249481 -0.002157640177756548
-0.0002959130215458572 0.0033609501551836733 -0.002072214614599943
-0.0003617173351813108 0.0032752882689237595 -0.002068623900413513
-0.000335126620484516 0.003248720662668347 -0.0019626787398010492
-0.00016585958655923605 0.003248706692829728 -0.0018107416108250616
3.856507100863382e-5 0.0031557809561491013 -0.0018197325989603998
0.00017817027401179075 0.0030867967288941145 -0.0017872550524771214
0.0002414538903394714 0.0030650501139461994 -0.0016729598864912985
0.00023929805320221928 0.0029827600810676813 -0.0016635289648547769
0.00020282164041418582 0.002894301200285554 -0.0016647829907014968
0.0001460601488361135 0.0028452479746192694 -0.00159778434317559
8.396180783165619e-5 0.002805229276418686 -0.0015151372645050287
4.104220715817064e-5 0.0027463315054774284 -0.0014651899691671133
1.9746014004340395e-5 0.002665959531441331 -0.0014524367870762944
1.6199513993342407e-5 0.002575290622189641 -0.0014575183158740401
2.2040156181901693e-5 0.0024895472452044487 -0.0014540690463036299
2.6869760404224508e-5 0.0024189099203795195 -0.0014244549674913287
3.6020985135110095e-5 0.0023617271799594164 -0.0013715368695557117
3.733187259058468e-5 0.002310875104740262 -0.0013076537288725376
3.555733201210387e-5 0.002256987849250436 -0.0012490280205383897
4.305047696107067e-5 0.0021945771295577288 -0.0012051650555804372
4.652824645745568e-5 0.002124977996572852 -0.001173752942122519
4.336517667979933e-5 0.0020504342392086983 -0.001150905154645443
4.2152376408921555e-5 0.001972744707018137 -0.0011335058370605111
4.205681398161687e-5 0.0018945756601169705 -0.001116937375627458
3.8072852476034313e-5 0.0018187012756243348 -0.0010963940294459462
3.158946492476389e-5 0.0017470063176006079 -0.0010686120949685574
2.760080860753078e-5 0.0016803578473627565 -0.001032089232467115
2.850641067198012e-5 0.0016185209387913348 -0.0009872324299067259
3.2207175536314026e-5 0.0015602883649989963 -0.0009361329139210283
3.3850083127617836e-5 0.0015038968995213509 -0.0008818443748168646
3.2291711249854416e-5 0.0014471495524048805 -0.0008281721966341138
3.161442145938054e-5 0.0013877199962735176 -0.0007791456882841885
3.356763409101404e-5 0.0013238745741546154 -0.0007377677829936147
3.538468081387691e-5 0.0012548891827464104 -0.0007052927394397557
3.4792101359926164e-5 0.0011815894395112991 -0.0006802902207709849
3.270775778219104e-5 0.001106657087802887 -0.0006581153720617294
3.0274881282821298e-5 0.0010338021675124764 -0.0006323423585854471
2.6943627744913098e-5 0.0009664936223998666 -0.000596962752752006
2.1934773030807264e-5 0.0009071441018022598 -0.0005477977683767676
1.506981334387092e-5 0.0008576347026973963 -0.0004815891443286091
6.568267963302787e-6 0.0008201215532608329 -0.0003946024226024747
-3.061904180867714e-6 0.0007958090282045305 -0.0002847515279427171
-1.3021096492593642e-5 0.0007830507820472121 -0.0001548880827613175
-2.2314161469694227e-5 0.0007768895593471825 -1.3598239092971198e-5
-2.9934990379842926e-5 0.0007698077824898064 0.0001260972348973155
-3.506556458887644e-5 0.0007531092269346118 0.0002491359191481024
-3.721884422702715e-5 0.0007184836431406438 0.0003411239886190742
-1.8757042198558338e-5 0.000347861583577469 0.00018884122255258262

CELL_DATA 50

VECTORS liftinglineloading               float
0.0517742820084095 0.02899571880698204 0.0621815212070942
-0.01707075722515583 0.0029240946751087904 0.0062707411125302315
0.06515983492136002 0.03134845197200775 0.06722696870565414
0.07939877361059189 0.06253071129322052 0.13409754633903503
-0.2336321920156479 0.11349479854106903 0.24339038133621219
-0.9758649468421936 0.20903970301151276 0.4482870995998383
-2.2388393878936768 0.3693326413631439 0.7920364141464233
-3.323899745941162 0.4950322210788727 1.0615999698638916
-4.302064418792725 0.6034514904022217 1.294105887413025
-5.570141315460205 0.7257153391838074 1.5563015937805176
-6.752264976501465 0.8257489800453187 1.770824313163757
-8.000273704528809 0.9274677634239196 1.9889609813690186
-8.873581886291504 0.9951781034469604 2.1341662406921387
-9.402900695800781 1.0175069570541382 2.1820507049560547
-9.781349182128906 1.0145058631896973 2.175614833831787
-10.62769889831543 1.0410833358764648 2.2326104640960693
-10.953058242797852 1.0199671983718872 2.187326669692993
-11.579025268554688 1.035949945449829 2.221601963043213
-11.884786605834961 1.0199921131134033 2.187380075454712
-12.370824813842773 1.0253337621688843 2.1988353729248047
-12.563774108886719 1.013176679611206 2.172764301300049
-12.94257640838623 1.0058369636535645 2.1570241451263428
-12.83291244506836 0.9502077698707581 2.037727117538452
-12.98172378540039 0.9304915666580201 1.9954456090927126
-13.068422317504881 0.8957465291023254 1.9209346771240234
-13.303823471069336 0.8746964335441589 1.8757925033569338
-13.676987648010254 0.864412486553192 1.8537385463714597
-13.957818984985352 0.8398724794387818 1.8011122941970827
-14.145593643188475 0.8251064419746399 1.7694464921951294
-14.40478229522705 0.7958909869194031 1.706793665885925
-15.137872695922852 0.7800440192222595 1.6728098392486574
-15.612385749816895 0.7473607659339905 1.6027203798294067
-16.235416412353516 0.7091671228408813 1.5208138227462769
-16.474111557006836 0.6646454334259033 1.4253367185592651
-16.41228675842285 0.6270467638969421 1.3447060585021973
-16.43939971923828 0.5996281504631042 1.2859066724777222
-16.45442008972168 0.5736970901489258 1.2302974462509155
-16.2347354888916 0.5598447918891907 1.200590968132019
-16.030155181884766 0.5562611222267151 1.1929057836532593
-15.791861534118652 0.5503746271133423 1.1802822351455688
-15.582470893859865 0.5467066764831543 1.1724162101745605
-14.576071739196777 0.5267457962036133 1.1296099424362183
-13.146594047546387 0.5927196741104126 1.2710914611816406
-11.226778030395508 0.5825151205062866 1.249207615852356
-9.462369918823242 0.6687271595001221 1.4340901374816895
-7.632768630981444 0.7045286893844604 1.510866641998291
-5.958215236663818 0.6826189160346985 1.463881015777588
-4.3285040855407715 0.625760555267334 1.3419479131698608
-2.8930890560150146 0.5602355599403381 1.201429009437561
-1.3459479808807373 0.4957396388053894 1.0631171464920044