# vtk DataFile Version 4.0
 
ASCII
DATASET UNSTRUCTURED_GRID
POINTS 51 float
0.002990470267832279 -0.005441061686724424 0.005076933652162552
0.002663540421053767 -0.009501337073743343 0.00587243027985096
0.0024158067535609007 -0.01345937233418226 0.006810206454247236
0.0021610232070088387 -0.017365965992212296 0.00760216498747468
0.0018239807104691865 -0.02119337022304535 0.008405670523643494
0.0014375883620232344 -0.02493651583790779 0.00924947764724493
0.0011537274112924933 -0.028641520068049434 0.009872044436633587
0.0011058691889047623 -0.032280709594488144 0.010430311784148216
0.0012308575678616762 -0.0358172170817852 0.011133342050015926
0.0014622097369283438 -0.039304543286561966 0.011677759699523449
0.0017137653194367886 -0.04272200167179108 0.01218086015433073
0.0019408058142289517 -0.04604822024703026 0.012763842940330504
0.0021194086875766516 -0.049300286918878555 0.013329810462892057
0.0022329261992126703 -0.052488483488559716 0.013820431195199491
0.0022873322013765574 -0.055608805269002914 0.014258447103202341
0.002315010642632842 -0.05865214765071869 0.014695486053824425
0.0023268242366611958 -0.061612699180841446 0.015164511278271675
0.002347409725189209 -0.06448911130428314 0.015673121437430382
0.002370904665440321 -0.06728615611791611 0.016194317489862442
0.002401149133220315 -0.07000955939292908 0.01669558882713318
0.0024429464247077703 -0.07266294211149216 0.01715644635260105
0.0024758127983659506 -0.07524707168340683 0.017572443932294846
0.0025140612851828337 -0.07775907218456268 0.01795998029410839
0.0025619138032197952 -0.08019591122865677 0.018336232751607895
0.0026071176398545504 -0.0825556218624115 0.018712343648076057
0.0026486441493034363 -0.08483673632144928 0.019096648320555687
0.0026914223562926054 -0.08703853189945221 0.01949320174753666
0.0027327577117830515 -0.08916140347719193 0.01989983767271042
0.0027675682213157415 -0.09120655059814453 0.020309682935476303
0.0027959367725998163 -0.09317567199468613 0.02071314863860607
0.002822769805788994 -0.09507057815790176 0.021099943667650223
0.002852949546650052 -0.09689280390739441 0.021461404860019684
0.0028871840331703424 -0.09864331781864166 0.02179199829697609
0.0029206497129052877 -0.100322425365448 0.0220900047570467
0.0029517675284296274 -0.10192956775426865 0.022358544170856476
0.0029838785994797945 -0.10346344858407976 0.022605063393712044
0.003018902847543359 -0.10492230206727982 0.022839510813355446
0.0030546479392796755 -0.10630431771278381 0.02307218499481678
0.0030884870793670416 -0.10760831087827684 0.023309782147407532
0.0031200633384287357 -0.10883433371782303 0.02355203963816166
0.0031490367837250233 -0.10998377203941345 0.023791035637259483
0.003173950593918562 -0.11105909198522569 0.024012841284275055
0.003192906267940998 -0.11206336319446565 0.024200035259127617
0.003204090287908912 -0.11300034075975418 0.02433127723634243
0.0032060428056865926 -0.11387460678815842 0.024380648508667946
0.0031979666091501713 -0.11469075828790666 0.024322068318724632
0.0031800006981939077 -0.11545221507549285 0.024136105552315712
0.003153338097035885 -0.11616013199090958 0.023816201835870743
0.0031201306264847517 -0.11681272089481355 0.02337254025042057
0.003083207178860903 -0.11740509420633316 0.022832822054624557
0.003045693039894104 -0.11792968958616258 0.022239964455366135

CELLS 50 150
2 0 1
2 1 2
2 2 3
2 3 4
2 4 5
2 5 6
2 6 7
2 7 8
2 8 9
2 9 10
2 10 11
2 11 12
2 12 13
2 13 14
2 14 15
2 15 16
2 16 17
2 17 18
2 18 19
2 19 20
2 20 21
2 21 22
2 22 23
2 23 24
2 24 25
2 25 26
2 26 27
2 27 28
2 28 29
2 29 30
2 30 31
2 31 32
2 32 33
2 33 34
2 34 35
2 35 36
2 36 37
2 37 38
2 38 39
2 39 40
2 40 41
2 41 42
2 42 43
2 43 44
2 44 45
2 45 46
2 46 47
2 47 48
2 48 49
2 49 50

CELL_TYPES 50
4
4
4
4
4
4
4
4
4
4
4
4
4
4
4
4
4
4
4
4
4
4
4
4
4
4
4
4
4
4
4
4
4
4
4
4
4
4
4
4
4
4
4
4
4
4
4
4
4
4

POINT_DATA 51

SCALARS zone float
LOOKUP_TABLE default
1.0
1.0
1.0
1.0
1.0
1.0
1.0
1.0
1.0
1.0
1.0
1.0
1.0
1.0
1.0
1.0
1.0
1.0
1.0
1.0
1.0
1.0
1.0
1.0
1.0
1.0
1.0
1.0
1.0
1.0
1.0
1.0
1.0
1.0
1.0
1.0
1.0
1.0
1.0
1.0
1.0
1.0
1.0
1.0
1.0
1.0
1.0
1.0
1.0
1.0
1.0

VECTORS normals float
-0.00016346495249308646 -0.0020301376935094595 0.0003977482847403735
-0.00028733181534335017 -0.004009155090898275 0.0008666362846270203
-0.0002512586652301252 -0.003932314459234476 0.0008648672373965383
-0.0002959130215458572 -0.003866999177262187 0.0007977321511134506
-0.0003617173351813108 -0.0037852751556783915 0.0008236561552621423
-0.000335126620484516 -0.0037240746896713976 0.0007331868982873857
-0.00016585958655923605 -0.0036720959469676013 0.0005904173594899476
3.856507100863382e-5 -0.003587849205359816 0.000630648632068187
0.00017817027401179075 -0.0035119173116981983 0.0006237236666493118
0.0002414538903394714 -0.003452391130849719 0.0005237591685727239
0.00023929805320221928 -0.003371838247403503 0.0005430418532341719
0.00020282164041418582 -0.003289142856374383 0.0005744749796576798
0.0001460601488361135 -0.0032201330177485943 0.0005282940692268312
8.396180783165619e-5 -0.003154260804876685 0.0004643184074666351
4.104220715817064e-5 -0.0030818318482488394 0.0004375274875201285
1.9746014004340395e-5 -0.0030019450932741165 0.00045303223305381835
1.6199513993342407e-5 -0.002918482292443514 0.0004888178664259613
2.2040156181901693e-5 -0.002836730098351836 0.0005149026401340961
2.6869760404224508e-5 -0.0027602240443229675 0.0005112339276820421
3.6020985135110095e-5 -0.002688390901312232 0.00048106475151143974
3.733187259058468e-5 -0.00261875637806952 0.00043842670856975024
3.555733201210387e-5 -0.0025480675976723433 0.00040176708716899157
4.305047696107067e-5 -0.002474418608471751 0.00038189516635611653
4.652824645745568e-5 -0.0023982732091099024 0.0003761817351914942
4.336517667979933e-5 -0.0023204106837511063 0.00038020723150111735
4.2152376408921555e-5 -0.0022414554841816425 0.00039042861317284405
4.205681398161687e-5 -0.0021623338107019663 0.0004015947924926877
3.8072852476034313e-5 -0.0020840091165155172 0.0004082409432157874
3.158946492476389e-5 -0.0020071358885616064 0.00040665554115548735
2.760080860753078e-5 -0.0019320151768624783 0.0003951303951907903
2.850641067198012e-5 -0.0018585656071081758 0.0003741282853297889
3.2207175536314026e-5 -0.0017863677348941567 0.00034602716914378107
3.3850083127617836e-5 -0.0017148093320429323 0.0003142996283713728
3.2291711249854416e-5 -0.0016431272961199284 0.0002832729951478541
3.161442145938054e-5 -0.001570513821206987 0.00025752923102118075
3.356763409101404e-5 -0.0014963666908442974 0.0002404831611784175
3.538468081387691e-5 -0.0014204344479367137 0.00023356098972726613
3.4792101359926164e-5 -0.0013430038234218955 0.00023513630731031299
3.270775778219104e-5 -0.0012650062562897801 0.00023992716160137204
3.0274881282821298e-5 -0.0011877301149070263 0.000240626250160858
2.6943627744913098e-5 -0.001112380181439221 0.00023040118685457855
2.1934773030807264e-5 -0.001039794529788196 0.0002044999855570495
1.506981334387092e-5 -0.00097062619170174 0.00015921740850899369
6.568267963302787e-6 -0.0009056241251528263 9.030687942868099e-5
-3.061904180867714e-6 -0.000845206610392779 -4.603818069881527e-6
-1.3021096492593642e-5 -0.0007888018735684454 -0.00012227194383740425
-2.2314161469694227e-5 -0.0007346882484853268 -0.00025293370708823204
-2.9934990379842926e-5 -0.0006802548887208104 -0.00038178241811692715
-3.506556458887644e-5 -0.0006224816897884011 -0.0004916897160001099
-3.721884422702715e-5 -0.0005584824830293655 -0.0005662876064889133
-1.8757042198558338e-5 -0.00026229547802358866 -0.0002964283630717546

CELL_DATA 50

VECTORS liftinglineloading               float
0.05235831439495087 -0.006016061175614595 -0.06876389682292938
-0.0160245131701231 -0.0006329109892249107 -0.007234205957502126
0.0642632469534874 -0.006361229345202446 -0.07270918041467667
0.08692585676908493 -0.012682989239692688 -0.1449672281742096
-0.2217372506856918 -0.023096976801753044 -0.26399967074394226
-0.9487506151199341 -0.042421720921993256 -0.48488250374794
-2.196481943130493 -0.07531259953975677 -0.8608269691467284
-3.2734112739562984 -0.1011076420545578 -1.155665636062622
-4.253760814666748 -0.12358713895082474 -1.4126074314117432
-5.517515182495117 -0.14875514805316925 -1.7002791166305542
-6.703694343566895 -0.1694992482662201 -1.9373853206634521
-7.959459304809571 -0.19059200584888458 -2.178476572036743
-8.842517852783203 -0.2047006189823151 -2.3397388458251953
-9.38288688659668 -0.20945815742015841 -2.394117832183838
-9.771729469299316 -0.20897951722145078 -2.3886468410491943
-10.62724494934082 -0.21457031369209292 -2.452549934387207
-10.962526321411133 -0.21031473577022552 -2.4039084911346436
-11.599088668823242 -0.21370375156402588 -2.4426450729370117
-11.916831970214844 -0.21046368777751923 -2.405611038208008
-12.416574478149414 -0.21162164211273193 -2.418846368789673
-12.596477508544922 -0.20904339849948883 -2.3893768787384033
-12.973721504211426 -0.20752826333045962 -2.372058868408203
-12.872644424438477 -0.1960858553647995 -2.241271495819092
-13.046014785766602 -0.19212183356285095 -2.19596266746521
-13.166900634765625 -0.1850006878376007 -2.114567518234253
-13.439478874206541 -0.1807466298341751 -2.065943479537964
-13.835291862487793 -0.17865481972694397 -2.0420339107513428
-14.14511013031006 -0.1736011952161789 -1.984270691871643
-14.358901023864748 -0.1705148071050644 -1.9489930868148804
-14.63791275024414 -0.1643516719341278 -1.8785481452941895
-15.302289009094238 -0.16077706217765808 -1.8376902341842651
-15.789282798767088 -0.15383151173591614 -1.7583020925521848
-16.434328079223633 -0.14594225585460663 -1.6681275367736814
-16.669601440429688 -0.13652247190475464 -1.560459017753601
-16.60009765625 -0.12874144315719604 -1.4715213775634766
-16.624732971191406 -0.12309429794549943 -1.406974196434021
-16.619400024414062 -0.11789611726999283 -1.347558856010437
-16.38453483581543 -0.11508197337388991 -1.3153929710388184
-16.169696807861328 -0.11443911492824554 -1.3080450296401978
-15.92393684387207 -0.1132858395576477 -1.2948631048202515
-15.699524879455566 -0.11256918311119081 -1.2866716384887695
-14.681407928466799 -0.10851287841796875 -1.2403079271316528
-13.23435115814209 -0.12230724841356277 -1.3979781866073608
-11.3043851852417 -0.1203208640217781 -1.3752737045288086
-9.53055477142334 -0.13827289640903473 -1.5804665088653564
-7.697352409362792 -0.14567475020885468 -1.6650699377059934
-6.014100551605225 -0.14118757843971252 -1.613781452178955
-4.412662982940674 -0.12976916134357452 -1.4832683801651
-2.955091714859009 -0.11619241535663606 -1.3280853033065796
-1.3710825443267822 -0.10268935561180115 -1.1737446784973145