# vtk DataFile Version 4.0
 
ASCII
DATASET UNSTRUCTURED_GRID
POINTS 51 float
0.002990470267832279 -0.003941654693335295 0.00631219195201993
0.002663540421053767 -0.007657689973711967 0.008131459355354309
0.0024158067535609007 -0.011238143779337406 0.010061696171760559
0.0021610232070088387 -0.014806649647653103 0.011837770231068134
0.0018239807104691865 -0.01829567551612854 0.013604502193629742
0.0014375883620232344 -0.021692883223295212 0.015388354659080504
0.0011537274112924933 -0.025110511109232903 0.016948632895946503
0.0011058691889047623 -0.02848120592534542 0.018429769203066826
0.0012308575678616762 -0.03171525523066521 0.02002415992319584
0.0014622097369283438 -0.03494284674525261 0.021452613174915314
0.0017137653194367886 -0.03811364620923996 0.022823074832558632
0.0019408058142289517 -0.041175637394189835 0.024247081950306892
0.0021194086875766516 -0.04417040944099426 0.025635460391640663
0.0022329261992126703 -0.04712299257516861 0.026934530586004257
0.0022873322013765574 -0.050023626536130905 0.028165221214294434
0.002315010642632842 -0.052850153297185905 0.029375042766332626
0.0023268242366611958 -0.055588431656360626 0.030594332143664364
0.002347409725189209 -0.05823519825935364 0.031830083578825
0.002370904665440321 -0.06080203875899315 0.03305744752287865
0.002401149133220315 -0.0633029043674469 0.03424650803208351
0.0024429464247077703 -0.06574659794569016 0.035378407686948776
0.0024758127983659506 -0.06813500821590424 0.03644905239343643
0.0025140612851828337 -0.07046111673116684 0.037473537027835846
0.0025619138032197952 -0.07271753251552582 0.03846767172217369
0.0026071176398545504 -0.07489949464797974 0.039441704750061035
0.0026486441493034363 -0.07700341194868088 0.04040330648422241
0.0026914223562926054 -0.07902755588293076 0.04135621711611748
0.0027327577117830515 -0.08097284287214279 0.04229843616485596
0.0027675682213157415 -0.08284223079681396 0.04322363808751106
0.0027959367725998163 -0.08463983237743378 0.044123005121946335
0.002822769805788994 -0.0863700583577156 0.04498705640435219
0.002852949546650052 -0.08803664147853851 0.04580782726407051
0.0028871840331703424 -0.08964194357395172 0.04658022150397301
0.0029206497129052877 -0.09118670225143433 0.04730265960097313
0.0029517675284296274 -0.09266959130764008 0.04797801002860069
0.0029838785994797945 -0.0940873995423317 0.04861312359571457
0.003018902847543359 -0.09543586522340775 0.049217164516448975
0.0030546479392796755 -0.09671056270599365 0.0497996024787426
0.0030884870793670416 -0.0979086309671402 0.0503666028380394
0.0031200633384287357 -0.09903017431497574 0.05091791972517967
0.0031490367837250233 -0.10007859021425247 0.05144627019762993
0.003173950593918562 -0.10105986148118973 0.05193883180618286
0.003192906267940998 -0.1019814610481262 0.05237957090139389
0.003204090287908912 -0.10285255312919615 0.052748847752809525
0.0032060428056865926 -0.10368424654006958 0.05302281677722931
0.0031979666091501713 -0.10448774695396425 0.05317746475338936
0.0031800006981939077 -0.1052713915705681 0.05319491773843766
0.003153338097035885 -0.10603798925876617 0.05306913703680038
0.0031201306264847517 -0.1067831665277481 0.05280949920415878
0.003083207178860903 -0.10749504715204239 0.052441488951444626
0.003045693039894104 -0.10815520584583281 0.052004605531692505

CELLS 50 150
2 0 1
2 1 2
2 2 3
2 3 4
2 4 5
2 5 6
2 6 7
2 7 8
2 8 9
2 9 10
2 10 11
2 11 12
2 12 13
2 13 14
2 14 15
2 15 16
2 16 17
2 17 18
2 18 19
2 19 20
2 20 21
2 21 22
2 22 23
2 23 24
2 24 25
2 25 26
2 26 27
2 27 28
2 28 29
2 29 30
2 30 31
2 31 32
2 32 33
2 33 34
2 34 35
2 35 36
2 36 37
2 37 38
2 38 39
2 39 40
2 40 41
2 41 42
2 42 43
2 43 44
2 44 45
2 45 46
2 46 47
2 47 48
2 48 49
2 49 50

CELL_TYPES 50
4
4
4
4
4
4
4
4
4
4
4
4
4
4
4
4
4
4
4
4
4
4
4
4
4
4
4
4
4
4
4
4
4
4
4
4
4
4
4
4
4
4
4
4
4
4
4
4
4
4

POINT_DATA 51

SCALARS zone float
LOOKUP_TABLE default
1.0
1.0
1.0
1.0
1.0
1.0
1.0
1.0
1.0
1.0
1.0
1.0
1.0
1.0
1.0
1.0
1.0
1.0
1.0
1.0
1.0
1.0
1.0
1.0
1.0
1.0
1.0
1.0
1.0
1.0
1.0
1.0
1.0
1.0
1.0
1.0
1.0
1.0
1.0
1.0
1.0
1.0
1.0
1.0
1.0
1.0
1.0
1.0
1.0
1.0
1.0

VECTORS normals float
-0.00016346495249308646 -0.0018580176401883364 0.0009096336434595287
-0.00028733181534335017 -0.0036482445430010553 0.0018747521098703144
-0.0002512586652301252 -0.0035744798369705673 0.0018531554378569124
-0.0002959130215458572 -0.0035287661012262106 0.0017714031273499131
-0.0003617173351813108 -0.0034431172534823418 0.001775292097590864
-0.000335126620484516 -0.0034074170980602503 0.001672065583989024
-0.00016585958655923605 -0.003394160885363817 0.0015207077376544476
3.856507100863382e-5 -0.003302372293546796 0.0015377635136246681
0.00017817027401179075 -0.0032308201771229506 0.001511421985924244
0.0002414538903394714 -0.003199194790795446 0.001399457105435431
0.00023929805320221928 -0.0031163960229605436 0.0013972340384498239
0.00020282164041418582 -0.0030283830128610134 0.0014061930123716593
0.0001460601488361135 -0.0029736768919974566 0.001343724550679326
8.396180783165619e-5 -0.002926607383415103 0.001264879829250276
4.104220715817064e-5 -0.0028635805938392878 0.001220255857333541
1.9746014004340395e-5 -0.002782403025776148 0.0012145560467615724
1.6199513993342407e-5 -0.0026925220154225826 0.001227520639076829
2.2040156181901693e-5 -0.0026068042498081923 0.0012315574567764997
2.6869760404224508e-5 -0.0025338546838611364 0.0012082126922905445
3.6020985135110095e-5 -0.0024722774978727102 0.0011604796163737774
3.733187259058468e-5 -0.0024160512257367373 0.001101271715015173
3.555733201210387e-5 -0.0023572593927383423 0.0010475656017661095
4.305047696107067e-5 -0.0022912630811333656 0.0010093090822920203
4.652824645745568e-5 -0.0022191910538822412 0.0009840824641287327
4.336517667979933e-5 -0.00214293971657753 0.0009678184287622572
4.2152376408921555e-5 -0.0020640294533222914 0.0009572564740665257
4.205681398161687e-5 -0.001984713599085808 0.0009475639672018588
3.8072852476034313e-5 -0.001907337689772248 0.0009337117080576718
3.158946492476389e-5 -0.0018334940541535616 0.0009122840710915625
2.760080860753078e-5 -0.0017639161087572575 0.00088170898379758
2.850641067198012e-5 -0.0016984048997983339 0.0008424123516306281
3.2207175536314026e-5 -0.0016359402798116205 0.0007965825498104097
3.3850083127617836e-5 -0.0015750318998470902 0.0007474154699593782
3.2291711249854416e-5 -0.001513822702690959 0.0006988933309912682
3.161442145938054e-5 -0.0014503463171422482 0.0006552330451086164
3.356763409101404e-5 -0.001383137539960444 0.0006195770693011582
3.538468081387691e-5 -0.0013115842593833804 0.0005932380445301533
3.4792101359926164e-5 -0.0012363842688500881 0.0005747191607952118
3.270775778219104e-5 -0.0011598044075071812 0.000559159554541111
3.0274881282821298e-5 -0.0010849805548787117 0.0005398342618718743
2.6943627744913098e-5 -0.001014844630844891 0.0005104556330479681
2.1934773030807264e-5 -0.0009514358825981617 0.00046665043919347227
1.506981334387092e-5 -0.0008963444270193577 0.0004050087591167539
6.568267963302787e-6 -0.000851392629556358 0.00032162253046408296
-3.061904180867714e-6 -0.0008175984839908779 0.00021430863125715402
-1.3021096492593642e-5 -0.0007935704197734594 8.6051324615255e-5
-2.2314161469694227e-5 -0.0007751184166409075 -5.4163891036296257e-5
-2.9934990379842926e-5 -0.0007558883517049253 -0.00019271056225989014
-3.506556458887644e-5 -0.000728529819753021 -0.0003138256724923849
-3.721884422702715e-5 -0.0006860186695121229 -0.0004024459049105645
-1.8757042198558338e-5 -0.000330079288687557 -0.00021844076400157067

CELL_DATA 50

VECTORS liftinglineloading               float
0.05182439461350441 -0.023472227156162262 -0.06448940932750702
-0.016901353374123573 -0.0023821727372705936 -0.006544966250658035
0.06500190496444702 -0.025295136496424675 -0.06949781626462936
0.08059749007225037 -0.05045422166585922 -0.13862183690071106
-0.23160655796527863 -0.09162110090255737 -0.2517269253730774
-0.9711547493934631 -0.16868193447589874 -0.4634498059749603
-2.231543779373169 -0.2982814311981201 -0.8195214867591857
-3.315440654754639 -0.39993032813072205 -1.0987995862960815
-4.29425048828125 -0.4877519905567169 -1.340087652206421
-5.562496662139893 -0.5867093205451965 -1.6119706630706787
-6.746286392211914 -0.6677709817886353 -1.834685683250427
-7.9965434074401855 -0.7502036094665527 -2.0611674785614014
-8.87256908416748 -0.8051292896270752 -2.2120745182037354
-9.404513359069824 -0.8233248591423035 -2.262066602706909
-9.785873413085938 -0.8210455179214478 -2.2558040618896484
-10.634051322937012 -0.8426065444946288 -2.315042495727539
-10.96163558959961 -0.825568914413452 -2.2682321071624756
-11.589856147766113 -0.838559865951538 -2.303924322128296
-11.8980712890625 -0.8256310224533082 -2.268402576446533
-12.386991500854492 -0.829981029033661 -2.2803540229797363
-12.583475112915039 -0.8202064037322998 -2.2534985542297363
-12.96672248840332 -0.8143548965454102 -2.237421751022339
-12.859376907348633 -0.7693402767181396 -2.1137452125549316
-13.012721061706545 -0.7534565329551697 -2.0701048374176025
-13.103250503540039 -0.7252729535102844 -1.992671012878418
-13.343213081359863 -0.7081946134567261 -1.9457488059997559
-13.723660469055176 -0.6999140977859497 -1.9229981899261475
-14.014093399047853 -0.6800755858421326 -1.8684922456741335
-14.21092128753662 -0.6680886745452881 -1.8355585336685183
-14.477561950683594 -0.6442866921424866 -1.7701631784439087
-15.2074613571167 -0.6310399770736694 -1.733768105506897
-15.644720077514648 -0.6042189002037048 -1.6600778102874756
-16.271484375 -0.5733574628829956 -1.575286626815796
-16.510784149169922 -0.5371494889259338 -1.4758061170578003
-16.439067840576172 -0.5067949891090393 -1.392407774925232
-16.46072006225586 -0.4847189784049988 -1.331754446029663
-16.493173599243164 -0.4636873602867126 -1.273970603942871
-16.267850875854492 -0.4525507986545563 -1.243373155593872
-16.054973602294922 -0.44981351494789124 -1.2358524799346924
-15.809062004089355 -0.44515773653984064 -1.2230608463287354
-15.591436386108398 -0.44226512312889105 -1.2151134014129639
-14.731345176696777 -0.42552298307418823 -1.1691148281097412
-13.276219367980957 -0.4800289571285248 -1.3188687562942505
-11.341646194458008 -0.47247490286827093 -1.2981141805648804
-9.563182830810547 -0.5432437062263489 -1.4925497770309448
-7.727952003479005 -0.5723156929016113 -1.5724244117736816
-6.039914131164551 -0.554749608039856 -1.5241620540618896
-4.396617889404297 -0.5087520480155945 -1.39778470993042
-2.94523549079895 -0.45560669898986816 -1.2517690658569336
-1.3332288265228271 -0.4003443121910095 -1.0999369621276855