# vtk DataFile Version 4.0
 
ASCII
DATASET UNSTRUCTURED_GRID
POINTS 51 float
0.002990470267832279 0.0015450471546500921 -0.007279645651578903
0.002663540421053767 0.004414752125740051 -0.010260156355798244
0.0024158067535609007 0.007119098212569952 -0.013298572972416878
0.0021610232070088387 0.009864944033324718 -0.016188038513064384
0.0018239807104691865 0.01253929827362299 -0.01904154010117054
0.0014375883620232344 0.015121515840291977 -0.02187972702085972
0.0011537274112924933 0.017799386754631996 -0.024514805525541306
0.0011058691889047623 0.020460227504372597 -0.027059465646743774
0.0012308575678616762 0.022953925654292107 -0.0296638123691082
0.0014622097369283438 0.02549830824136734 -0.03211002051830292
0.0017137653194367886 0.02800915949046612 -0.034482307732105255
0.0019408058142289517 0.03039945289492607 -0.03686770051717758
0.0021194086875766516 0.032738763839006424 -0.039196621626615524
0.0022329261992126703 0.03506897762417793 -0.041427191346883774
0.0022873322013765574 0.03737375885248184 -0.04357573762536049
0.002315010642632842 0.039616044610738754 -0.045679327100515366
0.0023268242366611958 0.041772160679101944 -0.04776163026690483
0.002347409725189209 0.04383665695786476 -0.04982810467481613
0.002370904665440321 0.045828916132450104 -0.05185936018824577
0.002401149133220315 0.047772277146577835 -0.053832061588764184
0.0024429464247077703 0.04968146234750748 -0.055731486529111855
0.0024758127983659506 0.051559656858444214 -0.0575544498860836
0.0025140612851828337 0.0533950850367546 -0.05931272730231285
0.0025619138032197952 0.05517541244626045 -0.06101864948868751
0.0026071176398545504 0.05689264461398125 -0.0626802146434784
0.0026486441493034363 0.058540794998407364 -0.06430340558290482
0.0026914223562926054 0.0601169504225254 -0.06589114665985107
0.0027327577117830515 0.06162266433238984 -0.06744187325239182
0.0027675682213157415 0.0630628764629364 -0.06895064562559128
0.0027959367725998163 0.06444446742534637 -0.0704105868935585
0.002822769805788994 0.0657748281955719 -0.07181430608034134
0.002852949546650052 0.06706018000841141 -0.07315558195114136
0.0028871840331703424 0.06830449402332306 -0.0744304433465004
0.0029206497129052877 0.06950901448726654 -0.07563764601945877
0.0029517675284296274 0.07067148387432098 -0.07677944749593735
0.0029838785994797945 0.07178656756877899 -0.07786118239164352
0.003018902847543359 0.07284711301326752 -0.07888999581336975
0.0030546479392796755 0.07384573668241501 -0.07987327873706818
0.0030884870793670416 0.07477762550115585 -0.08081585168838501
0.0031200633384287357 0.07564297318458557 -0.08171750605106354
0.0031490367837250233 0.07644745707511902 -0.0825725719332695
0.003173950593918562 0.07720108330249786 -0.08337104320526123
0.003192906267940998 0.07791636139154434 -0.08410041034221649
0.003204090287908912 0.07860861718654633 -0.08474534749984741
0.0032060428056865926 0.07929645478725433 -0.08528725057840347
0.0031979666091501713 0.07999860495328903 -0.08570738881826401
0.0031800006981939077 0.08072901517152786 -0.08599180728197098
0.003153338097035885 0.08149240165948868 -0.08613580465316772
0.0031201306264847517 0.0822814404964447 -0.08614668995141983
0.003083207178860903 0.08307625353336334 -0.08604434877634048
0.003045693039894104 0.08384602516889572 -0.08585960417985916

CELLS 50 150
2 0 1
2 1 2
2 2 3
2 3 4
2 4 5
2 5 6
2 6 7
2 7 8
2 8 9
2 9 10
2 10 11
2 11 12
2 12 13
2 13 14
2 14 15
2 15 16
2 16 17
2 17 18
2 18 19
2 19 20
2 20 21
2 21 22
2 22 23
2 23 24
2 24 25
2 25 26
2 26 27
2 27 28
2 28 29
2 29 30
2 30 31
2 31 32
2 32 33
2 33 34
2 34 35
2 35 36
2 36 37
2 37 38
2 38 39
2 39 40
2 40 41
2 41 42
2 42 43
2 43 44
2 44 45
2 45 46
2 46 47
2 47 48
2 48 49
2 49 50

CELL_TYPES 50
4
4
4
4
4
4
4
4
4
4
4
4
4
4
4
4
4
4
4
4
4
4
4
4
4
4
4
4
4
4
4
4
4
4
4
4
4
4
4
4
4
4
4
4
4
4
4
4
4
4

POINT_DATA 51

SCALARS zone float
LOOKUP_TABLE default
1.0
1.0
1.0
1.0
1.0
1.0
1.0
1.0
1.0
1.0
1.0
1.0
1.0
1.0
1.0
1.0
1.0
1.0
1.0
1.0
1.0
1.0
1.0
1.0
1.0
1.0
1.0
1.0
1.0
1.0
1.0
1.0
1.0
1.0
1.0
1.0
1.0
1.0
1.0
1.0
1.0
1.0
1.0
1.0
1.0
1.0
1.0
1.0
1.0
1.0
1.0

VECTORS normals float
-0.00016346495249308646 0.0014348524855449796 -0.0014902554685249925
-0.00028733181534335017 0.002787025412544608 -0.003009463893249631
-0.0002512586652301252 0.00272509572096169 -0.0029639406129717827
-0.0002959130215458572 0.002710100030526519 -0.002871483564376831
-0.0003617173351813108 0.002628286136314273 -0.002845844253897667
-0.000335126620484516 0.002630044473335147 -0.0027366329450160265
-0.00016585958655923605 0.0026693553663790226 -0.002589869312942028
3.856507100863382e-5 0.0025772687513381243 -0.00257450295612216
0.00017817027401179075 0.0025190410669893026 -0.002525277668610215
0.0002414538903394714 0.0025276171509176493 -0.002409248612821102
0.00023929805320221928 0.002450572093948722 -0.002378840697929263
0.00020282164041418582 0.0023648026399314404 -0.0023571571800857782
0.0001460601488361135 0.002334761433303356 -0.002279745414853096
8.396180783165619e-5 0.0023174970410764217 -0.0021895570680499077
4.104220715817064e-5 0.0022735334932804108 -0.0021260676439851522
1.9746014004340395e-5 0.002199200913310051 -0.0020929472520947456
1.6199513993342407e-5 0.002110306406393647 -0.002074388787150383
2.2040156181901693e-5 0.0020283772610127926 -0.002048864960670471
2.6869760404224508e-5 0.001967811491340399 -0.0020019777584820986
3.6020985135110095e-5 0.0019262734567746522 -0.001936062821187079
3.733187259058468e-5 0.0018936883425340059 -0.0018611950799822807
3.555733201210387e-5 0.0018568106461316345 -0.0017906198045238853
4.305047696107067e-5 0.0018078790744766593 -0.0017320985207334163
4.652824645745568e-5 0.0017487815348431468 -0.0016837430885061622
4.336517667979933e-5 0.0016826912760734556 -0.0016423803754150867
4.2152376408921555e-5 0.0016121522057801485 -0.0016054664738476276
4.205681398161687e-5 0.0015409348998218775 -0.001569230924360454
3.8072852476034313e-5 0.001472962903790176 -0.0015297499485313892
3.158946492476389e-5 0.0014109013136476278 -0.001484358566813171
2.760080860753078e-5 0.0013559766812250018 -0.0014318302273750305
2.850641067198012e-5 0.001307856640778482 -0.0013724974123761058
3.2207175536314026e-5 0.0012648337287828326 -0.0013080672360956669
3.3850083127617836e-5 0.0012244146782904863 -0.0012410334311425686
3.2291711249854416e-5 0.0011834923643618822 -0.0011745027732104063
3.161442145938054e-5 0.001138776890002191 -0.001111765275709331
3.356763409101404e-5 0.001087816315703094 -0.0010552728781476617
3.538468081387691e-5 0.0010295866522938013 -0.0010060496861115098
3.4792101359926164e-5 0.000965255661867559 -0.0009629277046769856
3.270775778219104e-5 0.0008986158645711839 -0.0009221145883202553
3.0274881282821298e-5 0.0008349139825440943 -0.0008783634984865785
2.6943627744913098e-5 0.000779055873863399 -0.0008267686935141684
2.1934773030807264e-5 0.0007344533805735409 -0.00076391821494326
1.506981334387092e-5 0.0007037670584395528 -0.0006871515652164817
6.568267963302787e-6 0.0006900459993630648 -0.0005934197106398642
-3.061904180867714e-6 0.0006949933595024049 -0.0004810193786397576
-1.3021096492593642e-5 0.0007162809488363564 -0.0003522788465488702
-2.2314161469694227e-5 0.0007468981784768403 -0.00021420870325528085
-2.9934990379842926e-5 0.0007762135937809944 -7.744034519419074e-5
-3.506556458887644e-5 0.0007919287891127169 4.5727789256488904e-5
-3.721884422702715e-5 0.0007822912884876132 0.00014354323502629995
-1.8757042198558338e-5 0.000384884187951684 9.237340418621898e-5

CELL_DATA 50

VECTORS liftinglineloading               float
0.05173268914222717 0.04412009194493294 0.05258027836680412
-0.017402758821845055 0.0044002714566886425 0.005244039464741945
0.0655391588807106 0.048019006848335266 0.05722682550549508
0.07667502760887146 0.09584273397922516 0.11422092467546463
-0.23906581103801727 0.17386101186275482 0.20719948410987857
-0.9900789260864257 0.32079049944877625 0.38230323791503906
-2.263305902481079 0.5656737685203552 0.6741437315940857
-3.3556363582611084 0.7578112483024597 0.9031242728233339
-4.335335731506348 0.9226233363151551 1.0995396375656128
-5.608696460723877 1.1091618537902832 1.321847677230835
-6.790579795837403 1.2610886096954346 1.5029069185256958
-8.035459518432617 1.4154996871948242 1.6869268417358396
-8.903130531311035 1.5179157257080078 1.8089815378189087
-9.42501163482666 1.5511401891708374 1.8485767841339111
-9.7958345413208 1.5458043813705444 1.8422179222106936
-10.636491775512695 1.585745096206665 1.8898173570632935
-10.955587387084961 1.5531646013259888 1.8509894609451292
-11.576090812683105 1.5771468877792358 1.879570484161377
-11.875991821289062 1.5527650117874146 1.8505133390426638
-12.355854988098145 1.5607231855392456 1.8599975109100342
-12.541028022766113 1.5419379472732544 1.837610125541687
-12.910179138183594 1.53034245967865 1.8237911462783813
-12.794190406799316 1.4455528259277344 1.7227426767349243
-12.931833267211914 1.4151699542999268 1.6865339279174807
-13.008092880249025 1.3624382019042969 1.6236906051635742
-13.230957031250002 1.3304755687713623 1.5855989456176758
-13.584936141967775 1.314545750617981 1.5666146278381348
-13.840188980102539 1.2769840955734253 1.521850347518921
-14.002638816833496 1.2545528411865234 1.4951177835464478
-14.239599227905273 1.2106927633285522 1.4428473711013794
-14.977028846740724 1.188476800918579 1.4163715839385986
-15.453739166259764 1.1400800943374634 1.3586945533752441
-16.063405990600586 1.0818367004394531 1.2892827987670898
-16.30991554260254 1.0155795812606812 1.2103205919265747
-16.25838851928711 0.9584116339683533 1.1421905755996704
-16.291393280029297 0.9164922833442688 1.0922329425811768
-16.33661651611328 0.8760664463043214 1.0440553426742554
-16.131288528442383 0.8545711040496826 1.0184382200241089
-15.927873611450195 0.8486076593399048 1.0113312005996704
-15.689105033874512 0.8393173813819885 1.000259518623352
-15.486854553222656 0.8335250020027161 0.993356466293335
-14.48469924926758 0.802767813205719 0.9567014575004579
-13.066723823547363 0.9017661809921265 1.0746830701828003
-11.15162181854248 0.8852194547653198 1.05496346950531
-9.39280891418457 1.0148394107818604 1.209438443183899
-7.562483787536621 1.069016695022583 1.2740044593811035
-5.8951497077941895 1.035251498222351 1.2337647676467896
-4.273915767669678 0.9485445618629456 1.1304314136505127
-2.8501968383789062 0.8489077091217041 1.0116888284683228
-1.315232276916504 0.7500860691070557 0.8939177393913269