# vtk DataFile Version 4.0
 
ASCII
DATASET UNSTRUCTURED_GRID
POINTS 51 float
0.002990470267832279 0.005076933652162552 0.005441061686724424
0.002663540421053767 0.00587243027985096 0.009501337073743343
0.0024158067535609007 0.006810206454247236 0.01345937233418226
0.0021610232070088387 0.00760216498747468 0.017365965992212296
0.0018239807104691865 0.008405670523643494 0.02119337022304535
0.0014375883620232344 0.00924947764724493 0.02493651583790779
0.0011537274112924933 0.009872044436633587 0.028641520068049434
0.0011058691889047623 0.010430311784148216 0.032280709594488144
0.0012308575678616762 0.011133342050015926 0.0358172170817852
0.0014622097369283438 0.011677759699523449 0.039304543286561966
0.0017137653194367886 0.01218086015433073 0.04272200167179108
0.0019408058142289517 0.012763842940330504 0.04604822024703026
0.0021194086875766516 0.013329810462892057 0.049300286918878555
0.0022329261992126703 0.013820431195199491 0.052488483488559716
0.0022873322013765574 0.014258447103202341 0.055608805269002914
0.002315010642632842 0.014695486053824425 0.05865214765071869
0.0023268242366611958 0.015164511278271675 0.061612699180841446
0.002347409725189209 0.015673121437430382 0.06448911130428314
0.002370904665440321 0.016194317489862442 0.06728615611791611
0.002401149133220315 0.01669558882713318 0.07000955939292908
0.0024429464247077703 0.01715644635260105 0.07266294211149216
0.0024758127983659506 0.017572443932294846 0.07524707168340683
0.0025140612851828337 0.01795998029410839 0.07775907218456268
0.0025619138032197952 0.018336232751607895 0.08019591122865677
0.0026071176398545504 0.018712343648076057 0.0825556218624115
0.0026486441493034363 0.019096648320555687 0.08483673632144928
0.0026914223562926054 0.01949320174753666 0.08703853189945221
0.0027327577117830515 0.01989983767271042 0.08916140347719193
0.0027675682213157415 0.020309682935476303 0.09120655059814453
0.0027959367725998163 0.02071314863860607 0.09317567199468613
0.002822769805788994 0.021099943667650223 0.09507057815790176
0.002852949546650052 0.021461404860019684 0.09689280390739441
0.0028871840331703424 0.02179199829697609 0.09864331781864166
0.0029206497129052877 0.0220900047570467 0.100322425365448
0.0029517675284296274 0.022358544170856476 0.10192956775426865
0.0029838785994797945 0.022605063393712044 0.10346344858407976
0.003018902847543359 0.022839510813355446 0.10492230206727982
0.0030546479392796755 0.02307218499481678 0.10630431771278381
0.0030884870793670416 0.023309782147407532 0.10760831087827684
0.0031200633384287357 0.02355203963816166 0.10883433371782303
0.0031490367837250233 0.023791035637259483 0.10998377203941345
0.003173950593918562 0.024012841284275055 0.11105909198522569
0.003192906267940998 0.024200035259127617 0.11206336319446565
0.003204090287908912 0.02433127723634243 0.11300034075975418
0.0032060428056865926 0.024380648508667946 0.11387460678815842
0.0031979666091501713 0.024322068318724632 0.11469075828790666
0.0031800006981939077 0.024136105552315712 0.11545221507549285
0.003153338097035885 0.023816201835870743 0.11616013199090958
0.0031201306264847517 0.02337254025042057 0.11681272089481355
0.003083207178860903 0.022832822054624557 0.11740509420633316
0.003045693039894104 0.022239964455366135 0.11792968958616258

CELLS 50 150
2 0 1
2 1 2
2 2 3
2 3 4
2 4 5
2 5 6
2 6 7
2 7 8
2 8 9
2 9 10
2 10 11
2 11 12
2 12 13
2 13 14
2 14 15
2 15 16
2 16 17
2 17 18
2 18 19
2 19 20
2 20 21
2 21 22
2 22 23
2 23 24
2 24 25
2 25 26
2 26 27
2 27 28
2 28 29
2 29 30
2 30 31
2 31 32
2 32 33
2 33 34
2 34 35
2 35 36
2 36 37
2 37 38
2 38 39
2 39 40
2 40 41
2 41 42
2 42 43
2 43 44
2 44 45
2 45 46
2 46 47
2 47 48
2 48 49
2 49 50

CELL_TYPES 50
4
4
4
4
4
4
4
4
4
4
4
4
4
4
4
4
4
4
4
4
4
4
4
4
4
4
4
4
4
4
4
4
4
4
4
4
4
4
4
4
4
4
4
4
4
4
4
4
4
4

POINT_DATA 51

SCALARS zone float
LOOKUP_TABLE default
1.0
1.0
1.0
1.0
1.0
1.0
1.0
1.0
1.0
1.0
1.0
1.0
1.0
1.0
1.0
1.0
1.0
1.0
1.0
1.0
1.0
1.0
1.0
1.0
1.0
1.0
1.0
1.0
1.0
1.0
1.0
1.0
1.0
1.0
1.0
1.0
1.0
1.0
1.0
1.0
1.0
1.0
1.0
1.0
1.0
1.0
1.0
1.0
1.0
1.0
1.0

VECTORS normals float
-0.00016346495249308646 0.0003977482847403735 0.0020301376935094595
-0.00028733181534335017 0.0008666362846270203 0.004009155090898275
-0.0002512586652301252 0.0008648672373965383 0.003932314459234476
-0.0002959130215458572 0.0007977321511134506 0.003866999177262187
-0.0003617173351813108 0.0008236561552621423 0.0037852751556783915
-0.000335126620484516 0.0007331868982873857 0.0037240746896713976
-0.00016585958655923605 0.0005904173594899476 0.0036720959469676013
3.856507100863382e-5 0.000630648632068187 0.003587849205359816
0.00017817027401179075 0.0006237236666493118 0.0035119173116981983
0.0002414538903394714 0.0005237591685727239 0.003452391130849719
0.00023929805320221928 0.0005430418532341719 0.003371838247403503
0.00020282164041418582 0.0005744749796576798 0.003289142856374383
0.0001460601488361135 0.0005282940692268312 0.0032201330177485943
8.396180783165619e-5 0.0004643184074666351 0.003154260804876685
4.104220715817064e-5 0.0004375274875201285 0.0030818318482488394
1.9746014004340395e-5 0.00045303223305381835 0.0030019450932741165
1.6199513993342407e-5 0.0004888178664259613 0.002918482292443514
2.2040156181901693e-5 0.0005149026401340961 0.002836730098351836
2.6869760404224508e-5 0.0005112339276820421 0.0027602240443229675
3.6020985135110095e-5 0.00048106475151143974 0.002688390901312232
3.733187259058468e-5 0.00043842670856975024 0.00261875637806952
3.555733201210387e-5 0.00040176708716899157 0.0025480675976723433
4.305047696107067e-5 0.00038189516635611653 0.002474418608471751
4.652824645745568e-5 0.0003761817351914942 0.0023982732091099024
4.336517667979933e-5 0.00038020723150111735 0.0023204106837511063
4.2152376408921555e-5 0.00039042861317284405 0.0022414554841816425
4.205681398161687e-5 0.0004015947924926877 0.0021623338107019663
3.8072852476034313e-5 0.0004082409432157874 0.0020840091165155172
3.158946492476389e-5 0.00040665554115548735 0.0020071358885616064
2.760080860753078e-5 0.0003951303951907903 0.0019320151768624783
2.850641067198012e-5 0.0003741282853297889 0.0018585656071081758
3.2207175536314026e-5 0.00034602716914378107 0.0017863677348941567
3.3850083127617836e-5 0.0003142996283713728 0.0017148093320429323
3.2291711249854416e-5 0.0002832729951478541 0.0016431272961199284
3.161442145938054e-5 0.00025752923102118075 0.001570513821206987
3.356763409101404e-5 0.0002404831611784175 0.0014963666908442974
3.538468081387691e-5 0.00023356098972726613 0.0014204344479367137
3.4792101359926164e-5 0.00023513630731031299 0.0013430038234218955
3.270775778219104e-5 0.00023992716160137204 0.0012650062562897801
3.0274881282821298e-5 0.000240626250160858 0.0011877301149070263
2.6943627744913098e-5 0.00023040118685457855 0.001112380181439221
2.1934773030807264e-5 0.0002044999855570495 0.001039794529788196
1.506981334387092e-5 0.00015921740850899369 0.00097062619170174
6.568267963302787e-6 9.030687942868099e-5 0.0009056241251528263
-3.061904180867714e-6 -4.603818069881527e-6 0.000845206610392779
-1.3021096492593642e-5 -0.00012227194383740425 0.0007888018735684454
-2.2314161469694227e-5 -0.00025293370708823204 0.0007346882484853268
-2.9934990379842926e-5 -0.00038178241811692715 0.0006802548887208104
-3.506556458887644e-5 -0.0004916897160001099 0.0006224816897884011
-3.721884422702715e-5 -0.0005662876064889133 0.0005584824830293655
-1.8757042198558338e-5 -0.0002964283630717546 0.00026229547802358866

CELL_DATA 50

VECTORS liftinglineloading               float
0.13387922942638397 -0.12555065751075745 0.010984259657561779
0.20575331151485443 -0.21893844008445737 0.019154630601406097
-0.11778619885444641 -0.06103608012199402 0.005339965224266052
0.04414056986570358 -0.08502300828695297 0.00743854884058237
0.38643619418144226 -0.09168866276741028 0.008021718822419643
-0.06527027487754822 -0.24372115731239316 0.021322838962078094
-1.1253714561462402 -0.6118841171264648 0.053532924503088
-2.271013021469116 -0.9352711439132689 0.0818256214261055
-3.537962198257446 -1.288985013961792 0.11277157813310623
-5.134314060211182 -1.6589475870132446 0.14513911306858063
-6.50131368637085 -1.938326120376587 0.1695815622806549
-7.915057182312011 -2.2058277130126953 0.1929849237203598
-8.8920316696167 -2.3823130130767822 0.20842537283897403
-9.48150634765625 -2.4421708583831787 0.2136622667312622
-9.873123168945312 -2.433718681335449 0.2129227817058563
-10.742875099182129 -2.498636245727539 0.21860234439373016
-11.073169708251953 -2.4479007720947266 0.21416355669498446
-11.719846725463867 -2.4865870475769043 0.21754817664623258
-12.057450294494629 -2.450808525085449 0.21441796422004702
-12.600022315979004 -2.465843439102173 0.2157333344221115
-12.86304759979248 -2.4389431476593018 0.2133798897266388
-13.455033302307129 -2.4339516162872314 0.21294318139553067
-13.42807674407959 -2.3009707927703857 0.20130886137485504
-13.658016204833984 -2.2545034885406494 0.19724349677562714
-13.784208297729494 -2.1653099060058594 0.1894400715827942
-14.037489891052246 -2.109001398086548 0.18451371788978577
-14.42849922180176 -2.081164836883545 0.18207833170890808
-14.70573616027832 -2.018187999725342 0.17656856775283813
-14.831960678100586 -1.9772565364837646 0.17298753559589386
-14.969238281249998 -1.9007561206817625 0.1662946194410324
-15.514604568481445 -1.8561726808547976 0.16239407658576965
-15.80197048187256 -1.7778574228286743 0.15554237365722656
-16.228782653808594 -1.6892411708831787 0.14778944849967957
-16.280502319335938 -1.589995265007019 0.13910655677318573
-16.060407638549805 -1.505751609802246 0.13173620402812958
-15.944514274597168 -1.44443941116333 0.1263720691204071
-15.923711776733398 -1.3812097311019897 0.12084019184112547
-15.633709907531738 -1.3496589660644531 0.11807985603809357
-15.339757919311523 -1.3388360738754272 0.1171329841017723
-15.024117469787598 -1.323102593421936 0.11575647443532945
-14.822045326232912 -1.3135396242141724 0.11491982638835907
-13.819737434387207 -1.2630563974380493 0.11050311475992203
-12.48349666595459 -1.4011776447296143 0.1225871592760086
-10.6168794631958 -1.36371910572052 0.11930995434522629
-8.914360046386719 -1.5450516939163208 0.13517449796199799
-7.057976722717285 -1.6219087839126587 0.14189863204956055
-5.469599723815918 -1.5648512840270996 0.13690674304962158
-3.927493333816528 -1.4288417100906372 0.12500745058059692
-2.5991663932800293 -1.2760359048843384 0.11163868010044099
-1.1852308511734009 -1.1263624429702759 0.09854394942522049