# vtk DataFile Version 4.0
 
ASCII
DATASET UNSTRUCTURED_GRID
POINTS 51 float
0.002990470267832279 -0.007386603858321905 -0.0009047048515640199
0.002663540421053767 -0.010605884715914726 -0.003503720974549651
0.0024158067535609007 -0.013868438079953194 -0.005932960659265518
0.0021610232070088387 -0.016986222937703133 -0.008416524156928062
0.0018239807104691865 -0.020061952993273735 -0.010832002386450768
0.0014375883620232344 -0.023114394396543503 -0.013157030567526816
0.0011537274112924933 -0.025972839444875717 -0.015595048666000366
0.0011058691889047623 -0.028739722445607185 -0.018023980781435966
0.0012308575678616762 -0.03155149891972542 -0.02028120681643486
0.0014622097369283438 -0.03421015664935112 -0.022602707147598267
0.0017137653194367886 -0.03679225221276283 -0.024897245690226555
0.0019408058142289517 -0.03937689587473869 -0.02707054279744625
0.0021194086875766516 -0.041900839656591415 -0.029197972267866135
0.0022329261992126703 -0.04432601109147072 -0.03132491186261177
0.0022873322013765574 -0.04666725546121597 -0.033433664590120316
0.002315010642632842 -0.04895826801657677 -0.03548407554626465
0.0023268242366611958 -0.051220569759607315 -0.037450503557920456
0.002347409725189209 -0.05345911160111427 -0.03932703658938408
0.002370904665440321 -0.055656272917985916 -0.041134681552648544
0.002401149133220315 -0.0577908419072628 -0.042898718267679214
0.0024429464247077703 -0.059849437326192856 -0.044635090976953506
0.0024758127983659506 -0.06182916089892387 -0.046347253024578094
0.0025140612851828337 -0.06374071538448334 -0.04802245274186134
0.0025619138032197952 -0.06559530645608902 -0.04964732751250267
0.0026071176398545504 -0.06740021705627441 -0.05121321231126785
0.0026486441493034363 -0.06916087865829468 -0.05271361768245697
0.0026914223562926054 -0.07087995111942291 -0.054145395755767815
0.0027327577117830515 -0.07255600392818451 -0.05551022663712502
0.0027675682213157415 -0.07418455928564072 -0.05681345984339714
0.0027959367725998163 -0.07575935870409012 -0.05806254968047142
0.002822769805788994 -0.07727368921041489 -0.05926550924777984
0.002852949546650052 -0.07872188091278076 -0.06042906641960145
0.0028871840331703424 -0.08010034263134003 -0.06155753880739212
0.0029206497129052877 -0.08140793442726135 -0.06265225261449814
0.0029517675284296274 -0.08264670521020889 -0.0637107864022255
0.0029838785994797945 -0.08382150530815125 -0.06472734361886978
0.003018902847543359 -0.08493883907794952 -0.06569419056177139
0.0030546479392796755 -0.08600541949272156 -0.06660331785678864
0.0030884870793670416 -0.08702562004327774 -0.06744951009750366
0.0031200633384287357 -0.08799926936626434 -0.06823297590017319
0.0031490367837250233 -0.0889211967587471 -0.06895987689495087
0.003173950593918562 -0.08978231251239777 -0.06964103877544403
0.003192906267940998 -0.09057123959064484 -0.07029002904891968
0.003204090287908912 -0.09127406030893326 -0.07092344015836716
0.0032060428056865926 -0.09187384694814682 -0.07156143337488174
0.0031979666091501713 -0.09235358238220215 -0.07222428917884827
0.0031800006981939077 -0.09270057827234268 -0.07292713969945908
0.003153338097035885 -0.09291056543588638 -0.07367506623268127
0.0031201306264847517 -0.09299017488956451 -0.07446015626192093
0.003083207178860903 -0.0929574966430664 -0.07526087015867233
0.003045693039894104 -0.09284054487943649 -0.07604380697011948

CELLS 50 150
2 0 1
2 1 2
2 2 3
2 3 4
2 4 5
2 5 6
2 6 7
2 7 8
2 8 9
2 9 10
2 10 11
2 11 12
2 12 13
2 13 14
2 14 15
2 15 16
2 16 17
2 17 18
2 18 19
2 19 20
2 20 21
2 21 22
2 22 23
2 23 24
2 24 25
2 25 26
2 26 27
2 27 28
2 28 29
2 29 30
2 30 31
2 31 32
2 32 33
2 33 34
2 34 35
2 35 36
2 36 37
2 37 38
2 38 39
2 39 40
2 40 41
2 41 42
2 42 43
2 43 44
2 44 45
2 45 46
2 46 47
2 47 48
2 48 49
2 49 50

CELL_TYPES 50
4
4
4
4
4
4
4
4
4
4
4
4
4
4
4
4
4
4
4
4
4
4
4
4
4
4
4
4
4
4
4
4
4
4
4
4
4
4
4
4
4
4
4
4
4
4
4
4
4
4

POINT_DATA 51

SCALARS zone float
LOOKUP_TABLE default
1.0
1.0
1.0
1.0
1.0
1.0
1.0
1.0
1.0
1.0
1.0
1.0
1.0
1.0
1.0
1.0
1.0
1.0
1.0
1.0
1.0
1.0
1.0
1.0
1.0
1.0
1.0
1.0
1.0
1.0
1.0
1.0
1.0
1.0
1.0
1.0
1.0
1.0
1.0
1.0
1.0
1.0
1.0
1.0
1.0
1.0
1.0
1.0
1.0
1.0
1.0

VECTORS normals float
-0.00016346495249308646 -0.0016096401959657667 -0.0012995080323889852
-0.00028733181534335017 -0.0032409171108156447 -0.0025141278747469187
-0.0002512586652301252 -0.00319016957655549 -0.002456401474773884
-0.0002959130215458572 -0.0030967574566602707 -0.0024495208635926247
-0.0003617173351813108 -0.0030640852637588978 -0.0023702532052993774
-0.000335126620484516 -0.0029554427601397038 -0.0023815231397747993
-0.00016585958655923605 -0.002812663558870554 -0.0024334758054465055
3.856507100863382e-5 -0.002789329970255494 -0.0023430788423866034
0.00017817027401179075 -0.0027352171018719673 -0.0022893629502505064
0.0002414538903394714 -0.002620376879349351 -0.00230801897123456
0.00023929805320221928 -0.0025833698455244303 -0.002233917359262705
0.00020282164041418582 -0.0025542937219142914 -0.0021503642201423645
0.0001460601488361135 -0.0024745583068579435 -0.0021271840669214725
8.396180783165619e-5 -0.0023832081351429224 -0.002117845695465803
4.104220715817064e-5 -0.0023161289282143116 -0.002079583005979657
1.9746014004340395e-5 -0.002276655985042453 -0.0020084199495613575
1.6199513993342407e-5 -0.002250420395284891 -0.0019214811036363242
2.2040156181901693e-5 -0.002217853209003806 -0.0018420882988721132
2.6869760404224508e-5 -0.0021658658515661955 -0.0017858394421637058
3.6020985135110095e-5 -0.0020965812727808952 -0.0017502044793218376
3.733187259058468e-5 -0.0020191585645079613 -0.0017242684261873364
3.555733201210387e-5 -0.0019456377485767007 -0.0016936820466071367
4.305047696107067e-5 -0.001883074291981757 -0.001650037243962288
4.652824645745568e-5 -0.001829752349294722 -0.001595378969796002
4.336517667979933e-5 -0.00178278679959476 -0.0015331452013924718
4.2152376408921555e-5 -0.0017398655181750655 -0.0014660918386653066
4.205681398161687e-5 -0.0016975607722997665 -0.0013983036624267697
3.8072852476034313e-5 -0.0016523059457540512 -0.0013340313453227282
3.158946492476389e-5 -0.0016016782028600574 -0.0012761621037498116
2.760080860753078e-5 -0.001544562866911292 -0.001226024585776031
2.850641067198012e-5 -0.0014812618028372526 -0.0011832588352262974
3.2207175536314026e-5 -0.0014133271761238575 -0.0011460151290521026
3.3850083127617836e-5 -0.001343025709502399 -0.0011115922825410962
3.2291711249854416e-5 -0.0012731816386803985 -0.0010766241466626525
3.161442145938054e-5 -0.00120678567327559 -0.0010375467827543616
3.356763409101404e-5 -0.001146066701039672 -0.0009917037095874548
3.538468081387691e-5 -0.0010919556953012943 -0.000937985780183226
3.4792101359926164e-5 -0.0010433910647407174 -0.0008776579052209854
3.270775778219104e-5 -0.0009969251696020365 -0.0008148287888616325
3.0274881282821298e-5 -0.0009477885905653239 -0.0007551824674010277
2.6943627744913098e-5 -0.0008915218058973551 -0.0007040336495265365
2.1934773030807264e-5 -0.0008250231039710342 -0.0006650787545368075
1.506981334387092e-5 -0.0007458740728907287 -0.0006411998183466494
6.568267963302787e-6 -0.0006513030384667218 -0.0006357001839205623
-3.061904180867714e-6 -0.0005397616187110543 -0.0006504251505248249
-1.3021096492593642e-5 -0.00041336633148603136 -0.0006828521727584302
-2.2314161469694227e-5 -0.000278490042546764 -0.0007253864896483719
-2.9934990379842926e-5 -0.00014479712990578264 -0.0007665104931220412
-3.506556458887644e-5 -2.346735891478602e-5 -0.0007929006824269891
-3.721884422702715e-5 7.481583452317864e-5 -0.0007918250630609691
-1.8757042198558338e-5 5.8477031416259706e-5 -0.0003914704720955342

CELL_DATA 50

VECTORS liftinglineloading               float
0.10614255070686342 0.07626252621412277 -0.07626252621412277
0.14481934905052185 0.11880648881196977 -0.11880648881196977
-0.069008968770504 0.036092475056648254 -0.036092475056648254
0.14482305943965912 0.06034521758556366 -0.06034521758556366
0.21743869781494143 0.10737148672342299 -0.10737148672342299
-0.3618479073047638 0.23267431557178497 -0.23267431557178497
-1.4785196781158447 0.4991981983184814 -0.4991981983184814
-2.6559083461761475 0.7313870191574097 -0.7313870191574097
-3.867428302764893 0.9623076915740967 -0.9623076915740967
-5.237146377563477 1.1852823495864868 -1.1852823495864868
-6.571832180023193 1.3759080171585083 -1.3759080171585083
-7.94876766204834 1.560280442237854 -1.560280442237854
-8.959503173828125 1.6891129016876218 -1.6891129016876218
-9.511585235595703 1.7271746397018433 -1.7271746397018433
-9.873995780944824 1.7186135053634641 -1.7186135053634641
-10.800496101379395 1.7669273614883423 -1.7669273614883423
-11.143196105957031 1.7304617166519167 -1.7304617166519167
-11.788640022277832 1.756805419921875 -1.756805419921875
-12.118735313415527 1.7285183668136597 -1.7285183668136597
-12.648178100585938 1.7374122142791746 -1.7374122142791746
-12.903108596801758 1.7178468704223633 -1.7178468704223633
-13.367370605468752 1.7076337337493896 -1.7076337337493896
-13.353970527648928 1.615067481994629 -1.615067481994629
-13.579223632812498 1.5830944776535034 -1.5830944776535034
-13.714362144470215 1.5210188627243042 -1.5210188627243042
-13.967645645141603 1.48234224319458 -1.48234224319458
-14.38444232940674 1.4642678499221802 -1.4642678499221802
-14.699469566345213 1.4214980602264404 -1.4214980602264404
-14.948488235473633 1.3943458795547485 -1.3943458795547485
-15.156989097595215 1.3406590223312378 -1.3406590223312378
-15.726263999938965 1.3069372177124023 -1.3069372177124023
-16.048128128051758 1.2499220371246338 -1.2499220371246338
-16.539287567138672 1.1884164810180664 -1.1884164810180664
-16.61267852783203 1.115212082862854 -1.115212082862854
-16.408124923706055 1.0554876327514648 -1.0554876327514648
-16.315563201904297 1.0123929977416992 -1.0123929977416992
-16.190515518188477 0.9717464447021485 -0.9717464447021485
-15.899035453796385 0.9497976899147034 -0.9497976899147034
-15.61291790008545 0.9434428215026854 -0.9434428215026854
-15.301560401916504 0.9332114458084105 -0.9332114458084105
-15.075909614562988 0.9269196391105651 -0.9269196391105651
-14.055304527282715 0.8919646739959717 -0.8919646739959717
-12.674986839294434 0.9937926530838013 -0.9937926530838013
-10.769255638122559 0.9692074656486511 -0.9692074656486511
-9.048089027404785 1.10234534740448 -1.10234534740448
-7.228070735931396 1.1602662801742554 -1.1602662801742554
-5.6087164878845215 1.120863914489746 -1.120863914489746
-4.03756046295166 1.0246062278747559 -1.0246062278747559
-2.6784322261810303 0.9156162142753601 -0.9156162142753601
-1.224076271057129 0.8083685040473938 -0.8083685040473938