# vtk DataFile Version 4.0
 
ASCII
DATASET UNSTRUCTURED_GRID
POINTS 51 float
0.0029255072586238384 -0.005397044122219086 0.0053265695460140705
0.0024741466622799635 -0.009476913139224052 0.006010944023728371
0.0021053405944257975 -0.013417436741292477 0.007048034109175205
0.0016511689173057675 -0.017259443178772926 0.00820628646761179
0.001117104198783636 -0.02100575715303421 0.009469674900174141
0.0006340054678730667 -0.024691978469491005 0.010636321268975735
0.0003643686359282583 -0.028378024697303772 0.011366395279765129
0.0003691194870043546 -0.032025206834077835 0.011879333294928074
0.000572872522752732 -0.035573240369558334 0.012517009861767292
0.0008646587957628071 -0.03906801715493202 0.013019153848290443
0.0011637704446911812 -0.04249197244644165 0.013485416769981383
0.001422586850821972 -0.0458218976855278 0.014047385193407534
0.0016198125667870045 -0.04907185956835747 0.014625288546085356
0.0017542806454002857 -0.05225700139999389 0.015133234672248363
0.001837961026467383 -0.055375974625349045 0.015578904189169407
0.0018885409226641061 -0.05841898918151856 0.016017796471714973
0.001923572504892945 -0.06137699633836746 0.016501247882843018
0.0019564125686883926 -0.06424791365861893 0.017041029408574104
0.0019946848042309284 -0.06703782826662064 0.017602650448679924
0.002041437430307269 -0.06975553184747696 0.01813625730574131
0.00209671794436872 -0.07240680605173111 0.01860903576016426
0.002158778952434659 -0.07499179989099503 0.019020164385437965
0.002224987605586648 -0.07750698179006577 0.019389675930142403
0.002292493125423789 -0.07994821667671204 0.01974097639322281
0.0023586952593177557 -0.08231242001056671 0.020091593265533447
0.0024215481244027615 -0.08459778130054474 0.02045178972184658
0.0024797271471470594 -0.08680369704961777 0.020825035870075226
0.0025326928589493036 -0.08893059194087982 0.021208805963397026
0.0025806704070419073 -0.09097980707883835 0.02159559540450573
0.002624556189402938 -0.09295331686735153 0.02197417803108692
0.0026656491681933403 -0.09485330432653427 0.02233218401670456
0.0027052650693804026 -0.09668153524398804 0.022659560665488243
0.002744461176916957 -0.09843899309635162 0.02295076847076416
0.002783895470201969 -0.10012570768594742 0.02320561185479164
0.0028237823862582445 -0.10174080729484557 0.023429058492183685
0.0028639202937483788 -0.10328265279531479 0.023630399256944656
0.0029037625063210726 -0.10474906861782075 0.023821981623768806
0.0029425176326185465 -0.10613773763179779 0.024016909301280975
0.002979256911203265 -0.10744719207286835 0.024223515763878822
0.0030130252707749605 -0.10867762565612793 0.02444077655673027
0.003042937722057104 -0.10983092337846756 0.024657869711518288
0.003068262478336692 -0.1109103262424469 0.024856524541974068
0.003088483354076743 -0.11191980540752411 0.025014173239469528
0.0031033395789563656 -0.11286427825689316 0.025102956220507622
0.0031128437258303165 -0.11374980211257935 0.025088461115956306
0.003117278451099992 -0.11458258330821992 0.024935569614171982
0.0031171750742942095 -0.11536727845668794 0.024617787450551987
0.003113273996859789 -0.1161055341362953 0.024125829339027405
0.0031064755748957396 -0.11679500341415405 0.023473046720027924
0.003097780514508486 -0.11742910742759703 0.02269662916660309
0.0030882256105542183 -0.11799763888120651 0.021854590624570847

CELLS 50 150
2 0 1
2 1 2
2 2 3
2 3 4
2 4 5
2 5 6
2 6 7
2 7 8
2 8 9
2 9 10
2 10 11
2 11 12
2 12 13
2 13 14
2 14 15
2 15 16
2 16 17
2 17 18
2 18 19
2 19 20
2 20 21
2 21 22
2 22 23
2 23 24
2 24 25
2 25 26
2 26 27
2 27 28
2 28 29
2 29 30
2 30 31
2 31 32
2 32 33
2 33 34
2 34 35
2 35 36
2 36 37
2 37 38
2 38 39
2 39 40
2 40 41
2 41 42
2 42 43
2 43 44
2 44 45
2 45 46
2 46 47
2 47 48
2 48 49
2 49 50

CELL_TYPES 50
4
4
4
4
4
4
4
4
4
4
4
4
4
4
4
4
4
4
4
4
4
4
4
4
4
4
4
4
4
4
4
4
4
4
4
4
4
4
4
4
4
4
4
4
4
4
4
4
4
4

POINT_DATA 51

SCALARS zone float
LOOKUP_TABLE default
1.0
1.0
1.0
1.0
1.0
1.0
1.0
1.0
1.0
1.0
1.0
1.0
1.0
1.0
1.0
1.0
1.0
1.0
1.0
1.0
1.0
1.0
1.0
1.0
1.0
1.0
1.0
1.0
1.0
1.0
1.0
1.0
1.0
1.0
1.0
1.0
1.0
1.0
1.0
1.0
1.0
1.0
1.0
1.0
1.0
1.0
1.0
1.0
1.0
1.0
1.0

VECTORS normals float
-0.00022568028362002224 -0.002039934741333127 0.000342187297064811
-0.00041008330299519 -0.0040101963095366955 0.0008607323397882283
-0.0004114889306947589 -0.0038912645541131496 0.0010976714547723532
-0.0004941182560287416 -0.0037941606715321545 0.0012108201626688242
-0.00050858169561252 -0.003716267645359039 0.0012150172842666507
-0.00037636776687577367 -0.003686133772134781 0.0009483601315878332
-0.00013244299043435603 -0.003666614182293415 0.0006215060129761696
0.00010425192886032163 -0.0035976073704659934 0.0005753076984547079
0.00024776963982731104 -0.0035214060917496677 0.0005699103930965066
0.00029544899007305503 -0.003459365805611014 0.00048420342500321567
0.00027896405663341284 -0.003376938635483384 0.0005141156143508852
0.00022802104649599642 -0.003289943328127265 0.0005699354805983603
0.00016584688273724169 -0.0032175532542169094 0.0005429245647974312
0.00010907424439210443 -0.003152058459818363 0.00047680828720331187
6.713013135595247e-5 -0.0030809936579316854 0.00044228113256394863
4.280570647097193e-5 -0.003000509925186634 0.00046117167221382255
3.3935823012143373e-5 -0.00291446247138083 0.000511616060975939
3.555617877282202e-5 -0.002830417826771736 0.000550701457541436
4.251242717145942e-5 -0.0027538093272596598 0.0005476144724525511
5.1016584620811045e-5 -0.0026844891253858805 0.0005031928303651512
5.867081563337706e-5 -0.0026181344874203205 0.00044195301597937947
6.413481605704874e-5 -0.0025500860065221786 0.0003903201431967318
6.685699190711603e-5 -0.0024782076943665743 0.000360406149411574
6.685387052129954e-5 -0.0024027209728956223 0.000350958202034235
6.452756497310475e-5 -0.0023247834760695696 0.00035540733369998634
6.0515933000715456e-5 -0.002245635725557804 0.0003667213604785502
5.557234908337704e-5 -0.0021664046216756105 0.00037850765511393547
5.047163722338155e-5 -0.0020880578085780144 0.00038527933065779507
4.5931661588838324e-5 -0.0020113622304052114 0.00038268606294877827
4.24893842136953e-5 -0.0019367469940334558 0.00036829482996836305
4.035446181660518e-5 -0.001864108839072287 0.0003426909970585257
3.940596798202023e-5 -0.001792845199815929 0.0003092919068876654
3.931512765120715e-5 -0.0017220870358869431 0.0002730255655478686
3.966056101489812e-5 -0.0016509082634001972 0.00023914501070976255
4.001240085926838e-5 -0.0015784724382683635 0.00021239380293991414
3.999012187705375e-5 -0.001504128915257752 0.00019646150758489966
3.9298683986999094e-5 -0.0014275413705036044 0.00019325550238136202
3.774720971705392e-5 -0.0013490639394149184 0.0002007673174375668
3.52538627339527e-5 -0.0012699422659352422 0.00021193342399783432
3.184030356351286e-5 -0.0011918648378923535 0.000217176740989089
2.7618556487141177e-5 -0.0011163523886352777 0.000207873759791255
2.2772850570618175e-5 -0.0010444404324516654 0.00017815180763136595
1.7538583051646128e-5 -0.00097697414457798 0.00012321649410296232
1.2180190424260218e-5 -0.0009149981779046357 3.714415288413875e-5
6.969491550989915e-6 -0.0008591523510403931 -8.369384158868343e-5
2.165645810237038e-6 -0.0008087383466772735 -0.00023533728381153196
-2.002310793614015e-6 -0.0007614787900820374 -0.0004048703995067627
-5.3496896725846455e-6 -0.0007138606742955744 -0.0005723702488467097
-7.746687515464146e-6 -0.0006617867038585246 -0.0007145994459278882
-9.125015822064597e-6 -0.0006013193633407354 -0.0008092274656519293
-4.777483354700962e-6 -0.0002842642134055495 -0.00042101930011995137

CELL_DATA 50

VECTORS liftinglineloading               float
0.014860720373690127 -0.0022283028811216354 -0.025469617918133736
0.007696076296269894 -0.002505535027012229 -0.02863839454948902
0.04868834838271141 -0.007245797663927077 -0.08281984180212021
0.01900864578783512 -0.011041379533708096 -0.12620355188846588
-0.20951485633850095 -0.01869697868824005 -0.21370743215084076
-0.789451539516449 -0.030905602499842644 -0.353252649307251
-1.5081127882003784 -0.0507221519947052 -0.5797568559646606
-2.3930559158325195 -0.06957631558179855 -0.7952609062194824
-3.4256362915039062 -0.089483842253685 -1.0228049755096436
-4.40627384185791 -0.10698103904724121 -1.2227989435195923
-5.188056468963623 -0.11828726530075072 -1.35202956199646
-6.122495174407959 -0.13302204012870789 -1.520448923110962
-7.048627853393555 -0.1444709151983261 -1.6513100862503052
-7.110948562622069 -0.1418081820011139 -1.6208750009536743
-7.423370361328125 -0.14020156860351562 -1.6025111675262451
-7.92814826965332 -0.14152316749095917 -1.6176172494888306
-8.19682788848877 -0.13954004645347595 -1.5949500799179077
-8.633604049682617 -0.13891375064849854 -1.5877914428710938
-8.953774452209473 -0.13799721002578735 -1.577315330505371
-9.074846267700195 -0.13844163715839386 -1.5823951959609985
-9.439836502075195 -0.13757796585559845 -1.5725232362747192
-9.697456359863281 -0.13311715424060822 -1.5215359926223755
-9.677103996276855 -0.1278841346502304 -1.4617222547531128
-9.790855407714844 -0.12507028877735138 -1.4295600652694702
-9.90949821472168 -0.12170356512069701 -1.3910781145095825
-10.099907875061035 -0.11917748302221298 -1.362204909324646
-10.358758926391602 -0.11639922857284545 -1.3304492235183716
-10.588266372680664 -0.11288788169622421 -1.2903144359588623
-10.885866165161133 -0.10914113372564314 -1.2474888563156128
-11.189164161682129 -0.10515940934419632 -1.2019776105880737
-11.322433471679688 -0.1004161462187767 -1.1477618217468262
-11.88223648071289 -0.09794935584068298 -1.1195663213729858
-11.942094802856445 -0.09231099486351013 -1.055119514465332
-11.984481811523438 -0.08848144859075546 -1.0113476514816284
-12.00328540802002 -0.08530095219612122 -0.9749943614006041
-11.963801383972168 -0.08231837302446365 -0.9409033060073854
-11.872393608093262 -0.08066391944885254 -0.921992838382721
-11.72939395904541 -0.07938344776630402 -0.9073569774627686
-11.54092025756836 -0.07745093107223511 -0.8852682113647461
-11.16175365447998 -0.07556767761707306 -0.863742470741272
-10.859052658081055 -0.07341635972261429 -0.8391528725624083
-10.190657615661621 -0.07090387493371964 -0.8104349970817566
-9.20240306854248 -0.08013060688972473 -0.915897011756897
-7.874027729034423 -0.08581943809986115 -0.9809206724166869
-6.776571750640868 -0.10098477452993393 -1.1542612314224243
-5.654068470001221 -0.10632751137018204 -1.2153289318084717
-4.811161041259766 -0.1097634881734848 -1.2546024322509766
-3.8523268699645996 -0.11358805000782013 -1.298317313194275
-2.9350640773773193 -0.11576368659734726 -1.3231849670410156
-1.5857868194580078 -0.1208069697022438 -1.3808300495147705