# vtk DataFile Version 4.0
 
ASCII
DATASET UNSTRUCTURED_GRID
POINTS 51 float
0.0029255072586238384 -0.0031594401225447655 -0.006893356796354056
0.0024741466622799635 -0.002407144522294402 -0.010961249470710754
0.0021053405944257975 -0.002033952157944441 -0.01501883566379547
0.0016511689173057675 -0.0018083101604133842 -0.01902528665959835
0.001117104198783636 -0.0017141910502687097 -0.02297777496278286
0.0006340054678730667 -0.0015497187850996852 -0.0268407054245472
0.0003643686359282583 -0.0009750610333867371 -0.030554156750440598
0.0003691194870043546 -0.00020965616567991674 -0.03415682166814804
0.000572872522752732 0.0004046224639751017 -0.03770897909998894
0.0008646587957628071 0.0011280464241281152 -0.041164740920066833
0.0011637704446911812 0.0018609632970765233 -0.044541675597429276
0.001422586850821972 0.002471787156537175 -0.04786298796534538
0.0016198125667870045 0.0030402885749936104 -0.051114607602357864
0.0017542806454002857 0.0036523586604744196 -0.05428139120340347
0.001837961026467383 0.004300317261368036 -0.057364694774150855
0.0018885409226641061 0.004928665701299906 -0.06037430092692376
0.001923572504892945 0.00548606738448143 -0.06331926584243774
0.0019564125686883926 0.005960751790553331 -0.06620166450738907
0.0019946848042309284 0.006387207191437483 -0.06901541352272034
0.002041437430307269 0.006815290078520776 -0.07175172120332718
0.00209671794436872 0.00727781280875206 -0.07440480589866638
0.002158778952434659 0.007775599602609873 -0.07697451859712601
0.002224987605586648 0.008288612589240074 -0.0794643983244896
0.002292493125423789 0.008793451823294163 -0.08187855780124664
0.0023586952593177557 0.009272584691643715 -0.08422010391950607
0.0024215481244027615 0.009715749882161617 -0.08649083971977234
0.0024797271471470594 0.010119479149580002 -0.08869136869907379
0.0025326928589493036 0.010486296378076077 -0.09082125872373581
0.0025806704070419073 0.010823706164956093 -0.09287918359041214
0.002624556189402938 0.011142934672534466 -0.094863161444664
0.0026656491681933403 0.011456351727247238 -0.0967710092663765
0.0027052650693804026 0.011774011887609959 -0.09860095381736755
0.002744461176916957 0.012101450935006142 -0.10035201907157898
0.002783895470201969 0.012438868172466755 -0.10202417522668839
0.0028237823862582445 0.012781293131411076 -0.1036183014512062
0.0028639202937483788 0.013119436800479889 -0.10513602197170258
0.0029037625063210726 0.013440951704978943 -0.1065795198082924
0.0029425176326185465 0.013732731342315674 -0.10795111209154128
0.002979256911203265 0.013986445963382723 -0.10925226658582687
0.0030130252707749605 0.01420311816036701 -0.11048279702663422
0.003042937722057104 0.014393570832908154 -0.11164079606533052
0.003068262478336692 0.014576073735952376 -0.11272304505109788
0.003088483354076743 0.014773194678127766 -0.11372556537389755
0.0031033395789563656 0.015012792311608791 -0.11464344710111618
0.0031128437258303165 0.01532928179949522 -0.11547061055898666
0.003117278451099992 0.015757780522108078 -0.11620087176561356
0.0031171750742942095 0.016324780881404877 -0.1168295592069626
0.003113273996859789 0.017039569094777107 -0.11735503375530244
0.0031064755748957396 0.01788879558444023 -0.1177796572446823
0.003097780514508486 0.018835265189409256 -0.11810997128486633
0.0030882256105542183 0.01982097141444683 -0.11835622042417526

CELLS 50 150
2 0 1
2 1 2
2 2 3
2 3 4
2 4 5
2 5 6
2 6 7
2 7 8
2 8 9
2 9 10
2 10 11
2 11 12
2 12 13
2 13 14
2 14 15
2 15 16
2 16 17
2 17 18
2 18 19
2 19 20
2 20 21
2 21 22
2 22 23
2 23 24
2 24 25
2 25 26
2 26 27
2 27 28
2 28 29
2 29 30
2 30 31
2 31 32
2 32 33
2 33 34
2 34 35
2 35 36
2 36 37
2 37 38
2 38 39
2 39 40
2 40 41
2 41 42
2 42 43
2 43 44
2 44 45
2 45 46
2 46 47
2 47 48
2 48 49
2 49 50

CELL_TYPES 50
4
4
4
4
4
4
4
4
4
4
4
4
4
4
4
4
4
4
4
4
4
4
4
4
4
4
4
4
4
4
4
4
4
4
4
4
4
4
4
4
4
4
4
4
4
4
4
4
4
4

POINT_DATA 51

SCALARS zone float
LOOKUP_TABLE default
1.0
1.0
1.0
1.0
1.0
1.0
1.0
1.0
1.0
1.0
1.0
1.0
1.0
1.0
1.0
1.0
1.0
1.0
1.0
1.0
1.0
1.0
1.0
1.0
1.0
1.0
1.0
1.0
1.0
1.0
1.0
1.0
1.0
1.0
1.0
1.0
1.0
1.0
1.0
1.0
1.0
1.0
1.0
1.0
1.0
1.0
1.0
1.0
1.0
1.0
1.0

VECTORS normals float
-0.00022568028362002224 0.0003761478583328426 -0.002033946570008993
-0.00041008330299519 0.0005627440405078232 -0.0040627396665513515
-0.0004114889306947589 0.0002994171518366784 -0.004032018594443798
-0.0004941182560287416 0.0001598805538378656 -0.003979469649493694
-0.00050858169561252 0.00012929570220876485 -0.00390770984813571
-0.00037636776687577367 0.0003695649793371558 -0.003788190893828869
-0.00013244299043435603 0.000670031295157969 -0.0036580578889697786
0.00010425192886032163 0.0006898417486809194 -0.0035774118732661013
0.00024776963982731104 0.0006688512512482703 -0.0035039603244513273
0.00029544899007305503 0.0007281703874468803 -0.0034163477830588813
0.00027896405663341284 0.0006718704244121909 -0.0033491221256554127
0.00022802104649599642 0.0005896626971662045 -0.003286464838311076
0.00016584688273724169 0.0005902858101762831 -0.0032092020846903324
0.00010907424439210443 0.0006300142267718911 -0.0031250440515577793
6.713013135595247e-5 0.000638153578620404 -0.0030464560259133577
4.280570647097193e-5 0.0005928752361796796 -0.00297728693112731
3.3935823012143373e-5 0.0005160430446267128 -0.0029136817902326584
3.555617877282202e-5 0.0004505697870627046 -0.0028480736073106527
4.251242717145942e-5 0.000427268969360739 -0.00277502927929163
5.1016584620811045e-5 0.00044530275044962764 -0.0026946966536343098
5.867081563337706e-5 0.00048015476204454893 -0.0026113984640687704
6.413481605704874e-5 0.0005053998320363462 -0.0025297943502664566
6.685699190711603e-5 0.0005089259939268231 -0.0024520198348909616
6.685387052129954e-5 0.0004919861094094813 -0.002377853961661458
6.452756497310475e-5 0.0004611491458490491 -0.0023061383981257677
6.0515933000715456e-5 0.00042344728717580443 -0.0022356335539370775
5.557234908337704e-5 0.0003852731897495687 -0.0021652118302881718
5.047163722338155e-5 0.00035211368231102824 -0.0020939058158546686
4.5931661588838324e-5 0.00032831914722919464 -0.0020209485664963722
4.24893842136953e-5 0.000316322548314929 -0.0019459110917523505
4.035446181660518e-5 0.0003155385493300855 -0.0018688965355977414
3.940596798202023e-5 0.0003225498367100954 -0.0017905074637383223
3.931512765120715e-5 0.00033242834615521133 -0.0017116126837208867
3.966056101489812e-5 0.00033992109820246696 -0.0016331387450918555
4.001240085926838e-5 0.0003402844595257193 -0.0015559218591079116
3.999012187705375e-5 0.00032982893753796816 -0.0014806125545874238
3.9298683986999094e-5 0.00030664712539874017 -0.0014075473882257938
3.774720971705392e-5 0.0002727474784478545 -0.0013363718753680587
3.52538627339527e-5 0.0002351935545448214 -0.0012658408377319574
3.184030356351286e-5 0.0002035624202108011 -0.0011942654382437468
2.7618556487141177e-5 0.00018647756951395422 -0.001120125176385045
2.2772850570618175e-5 0.00018981171888299286 -0.00104238442145288
1.7538583051646128e-5 0.00021835920051671567 -0.0009601978817954661
1.2180190424260218e-5 0.00027804373530671 -0.0008725210791453719
6.969491550989915e-6 0.00037249390152283013 -0.0007787141366861761
2.165645810237038e-6 0.0004977494827471673 -0.0006794753717258573
-2.002310793614015e-6 0.0006408948102034628 -0.0005770821589976549
-5.3496896725846455e-6 0.0007820068276487291 -0.0004750474763568491
-7.746687515464146e-6 0.0008978482219390571 -0.00037746867747046053
-9.125015822064597e-6 0.000966088380664587 -0.00028828324866481125
-4.777483354700962e-6 0.0004928528214804828 -0.00012312390026636422

CELL_DATA 50

VECTORS liftinglineloading               float
0.003856565104797483 0.007573865354061127 0.0020294110290706158
0.01984316110610962 0.0415828563272953 0.011142092756927013
0.041248612105846405 0.08276363462209702 0.02217644825577736
-0.003735433099791407 0.127701997756958 0.03421764820814133
-0.2752198278903961 0.22383987903594968 0.0599777176976204
-0.8896145224571228 0.36510351300239563 0.0978291854262352
-1.661815524101257 0.5860229134559631 0.15702436864376068
-2.575850486755371 0.7957368493080139 0.21321703493595123
-3.676546335220337 1.0248440504074097 0.2746061384677887
-4.708690643310547 1.2233413457870483 0.32779332995414734
-5.539811611175537 1.3529845476150513 0.3625311255455017
-6.491117000579835 1.5173892974853516 0.4065832495689392
-7.398482799530029 1.6388885974884033 0.4391388893127442
-7.40557336807251 1.5993869304656982 0.42855441570281977
-7.730057239532471 1.5833560228347778 0.4242589771747589
-8.19980525970459 1.592820167541504 0.4267948865890503
-8.436274528503418 1.564894437789917 0.41931220889091486
-8.809804916381836 1.550189733505249 0.4153721034526825
-9.08394718170166 1.5370992422103882 0.41186448931694036
-9.135422706604004 1.539554238319397 0.4125223159790039
-9.436277389526367 1.5271191596984863 0.40919035673141474
-10.144797325134277 1.494693636894226 0.40050193667411804
-10.066140174865723 1.4326272010803223 0.38387128710746765
-10.105827331542969 1.3973069190979004 0.37440726161003113
-10.140877723693848 1.3561065196990967 0.36336764693260193
-10.2552490234375 1.3261429071426392 0.3553389310836792
-10.446155548095703 1.294613003730774 0.34689050912857056
-10.629931449890137 1.255151391029358 0.3363167941570282
-10.84730052947998 1.2142386436462402 0.32535427808761597
-11.1852388381958 1.170387625694275 0.3136044144630432
-11.359373092651367 1.1164518594741821 0.2991523742675781
-11.88155746459961 1.0902202129364014 0.29212361574172974
-11.913079261779785 1.0291240215301514 0.2757529616355896
-11.934802055358887 0.9872707724571228 0.26453840732574463
-11.935019493103027 0.9523336887359618 0.2551770508289337
-11.88325309753418 0.9191353917121887 0.24628157913684845
-11.79600715637207 0.899919331073761 0.24113266170024872
-11.638773918151855 0.8856271505355835 0.2373030781745911
-11.435660362243652 0.8642115592956543 0.23156479001045224
-11.046601295471191 0.8429921269416809 0.22587905824184418
-10.732197761535645 0.8188985586166382 0.21942320466041562
-10.076776504516602 0.7888488173484802 0.21137140691280365
-9.091570854187012 0.8901617527008058 0.2385181188583374
-7.760162830352782 0.9516035318374633 0.2549813985824585
-6.663517475128173 1.1163184642791748 0.2991166412830353
-5.5423173904418945 1.1732780933380127 0.31437891721725464
-4.846010208129883 1.2204545736312866 0.3270198106765747
-3.86746883392334 1.261859655380249 0.33811426162719727
-2.93402361869812 1.2846477031707764 0.3442203104496002
-1.5768028497695923 1.3389883041381836 0.3587808310985565