# vtk DataFile Version 4.0
 
ASCII
DATASET UNSTRUCTURED_GRID
POINTS 51 float
0.0029255072586238384 -0.004835916683077812 -0.005840748082846403
0.0024741466622799635 -0.005162103101611137 -0.009964738972485065
0.0021053405944257975 -0.005851807538419962 -0.013980655930936338
0.0016511689173057675 -0.006670800037682056 -0.017908990383148193
0.001117104198783636 -0.00760286720469594 -0.02175116166472435
0.0006340054678730667 -0.008443798869848251 -0.025525033473968506
0.0003643686359282583 -0.008849834091961384 -0.02926068566739559
0.0003691194870043546 -0.009042948484420776 -0.03293869271874428
0.000572872522752732 -0.00936896726489067 -0.036528803408145905
0.0008646587957628071 -0.009564610198140144 -0.040054045617580414
0.0011637704446911812 -0.009730681777000427 -0.04350560903549194
0.001422586850821972 -0.010000289417803288 -0.046871840953826904
0.0016198125667870045 -0.010292740538716316 -0.05015980079770088
0.0017542806454002857 -0.010521150194108486 -0.053377095609903336
0.001837961026467383 -0.010693288408219814 -0.05652304366230964
0.0018885409226641061 -0.010865293443202972 -0.05959273129701615
0.001923572504892945 -0.011089098639786243 -0.0625816136598587
0.0019564125686883926 -0.011376608163118362 -0.06548865884542465
0.0019946848042309284 -0.011692935600876808 -0.06831690669059753
0.002041437430307269 -0.011987647973001003 -0.07107076793909073
0.00209671794436872 -0.012227554805576801 -0.07375316321849823
0.002158778952434659 -0.012411819770932198 -0.07636415213346481
0.002224987605586648 -0.012560714967548847 -0.07890196144580841
0.002292493125423789 -0.012697909027338028 -0.08136452734470367
0.0023586952593177557 -0.012841138057410717 -0.08375029265880585
0.0024215481244027615 -0.013000782579183578 -0.0860583558678627
0.0024797271471470594 -0.013180349953472616 -0.08828840404748917
0.0025326928589493036 -0.013377288356423378 -0.09044065326452255
0.0025806704070419073 -0.013584003783762455 -0.09251578152179718
0.002624556189402938 -0.013789144344627857 -0.09451477974653244
0.0026656491681933403 -0.013980193063616753 -0.09643873572349548
0.0027052650693804026 -0.014146982692182064 -0.09828854352235794
0.002744461176916957 -0.014283909462392328 -0.10006469488143921
0.002783895470201969 -0.014390775933861732 -0.10176720470190047
0.0028237823862582445 -0.014472607523202896 -0.10339563339948653
0.0028639202937483788 -0.014538801275193693 -0.10494916141033173
0.0029037625063210726 -0.014601848088204859 -0.1064266860485077
0.0029425176326185465 -0.014675004407763483 -0.10782705992460251
0.002979256911203265 -0.014766697771847248 -0.10914954543113708
0.0030130252707749605 -0.014875893481075764 -0.11039422452449799
0.003042937722057104 -0.014991642907261848 -0.1115620583295822
0.003068262478336692 -0.015095465816557407 -0.1126546710729599
0.003088483354076743 -0.015164532698690891 -0.11367404460906982
0.0031033395789563656 -0.015170662663877009 -0.11462265998125076
0.0031128437258303165 -0.015079043805599213 -0.11550355702638627
0.003117278451099992 -0.014854151755571365 -0.11631983518600462
0.0031171750742942095 -0.014469187706708908 -0.11707385629415512
0.003113273996859789 -0.013914758339524269 -0.11776642501354218
0.0031064755748957396 -0.01320436876267195 -0.11839637160301208
0.003097780514508486 -0.01237564068287611 -0.11896040290594101
0.0030882256105542183 -0.011487255804240704 -0.11945337802171707

CELLS 50 150
2 0 1
2 1 2
2 2 3
2 3 4
2 4 5
2 5 6
2 6 7
2 7 8
2 8 9
2 9 10
2 10 11
2 11 12
2 12 13
2 13 14
2 14 15
2 15 16
2 16 17
2 17 18
2 18 19
2 19 20
2 20 21
2 21 22
2 22 23
2 23 24
2 24 25
2 25 26
2 26 27
2 27 28
2 28 29
2 29 30
2 30 31
2 31 32
2 32 33
2 33 34
2 34 35
2 35 36
2 36 37
2 37 38
2 38 39
2 39 40
2 40 41
2 41 42
2 42 43
2 43 44
2 44 45
2 45 46
2 46 47
2 47 48
2 48 49
2 49 50

CELL_TYPES 50
4
4
4
4
4
4
4
4
4
4
4
4
4
4
4
4
4
4
4
4
4
4
4
4
4
4
4
4
4
4
4
4
4
4
4
4
4
4
4
4
4
4
4
4
4
4
4
4
4
4

POINT_DATA 51

SCALARS zone float
LOOKUP_TABLE default
1.0
1.0
1.0
1.0
1.0
1.0
1.0
1.0
1.0
1.0
1.0
1.0
1.0
1.0
1.0
1.0
1.0
1.0
1.0
1.0
1.0
1.0
1.0
1.0
1.0
1.0
1.0
1.0
1.0
1.0
1.0
1.0
1.0
1.0
1.0
1.0
1.0
1.0
1.0
1.0
1.0
1.0
1.0
1.0
1.0
1.0
1.0
1.0
1.0
1.0
1.0

VECTORS normals float
-0.00022568028362002224 -0.0001630931656109169 -0.002061995677649975
-0.00041008330299519 -0.000507945369463414 -0.00406995415687561
-0.0004114889306947589 -0.0007543484098277986 -0.003972125705331564
-0.0004941182560287416 -0.0008755297749303281 -0.003885252634063363
-0.00050858169561252 -0.0008864996489137411 -0.003808022011071443
-0.00037636776687577367 -0.0006234836182557046 -0.003754762001335621
-0.00013244299043435603 -0.0002995744871441275 -0.003706829389557243
0.00010425192886032163 -0.0002595663536339998 -0.0036340586375445127
0.00024776963982731104 -0.0002608309150673449 -0.0035576771479099993
0.00029544899007305503 -0.0001808572851587087 -0.003488403046503663
0.00027896405663341284 -0.00021783963893540204 -0.0034088965039700274
0.00022802104649599642 -0.0002810292935464531 -0.0033270972780883317
0.00016584688273724169 -0.0002604303299449384 -0.0032526284921914335
0.00010907424439210443 -0.00020027389109600335 -0.003181620500981808
6.713013135595247e-5 -0.00017207182827405632 -0.0031078169122338295
4.280570647097193e-5 -0.0001979050866793841 -0.003029285930097103
3.3935823012143373e-5 -0.00025565706891939044 -0.0029479621443897486
3.555617877282202e-5 -0.00030191868427209556 -0.002867643954232335
4.251242717145942e-5 -0.0003055203123949468 -0.0027910578064620495
5.1016584620811045e-5 -0.00026730939862318337 -0.0027181298937648535
5.867081563337706e-5 -0.0002120857825502753 -0.0026466904673725367
6.413481605704874e-5 -0.00016658022650517523 -0.002574400743469596
6.685699190711603e-5 -0.00014304465730674565 -0.0025001890026032925
6.685387052129954e-5 -0.00014021176320966333 -0.002424165839329362
6.452756497310475e-5 -0.00015143667405936867 -0.0023469128645956516
6.0515933000715456e-5 -0.0001696058316156268 -0.0022690522018820047
5.557234908337704e-5 -0.000188252713996917 -0.002191149862483144
5.047163722338155e-5 -0.00020182700245641172 -0.002113691531121731
4.5931661588838324e-5 -0.0002059280377579853 -0.0020370616111904383
4.24893842136953e-5 -0.00019809474179055542 -0.001961476169526577
4.035446181660518e-5 -0.00017891917377710342 -0.001886882819235325
3.940596798202023e-5 -0.00015185819938778877 -0.0018129793461412191
3.931512765120715e-5 -0.00012189684639452025 -0.001739329774864018
3.966056101489812e-5 -9.434884850634262e-5 -0.0016654689097777011
4.001240085926838e-5 -7.401265611406416e-5 -0.0015909771900624037
3.999012187705375e-5 -6.46204425720498e-5 -0.00151552795432508
3.9298683986999094e-5 -6.810167542425916e-5 -0.0014389524003490806
3.774720971705392e-5 -8.242466719821095e-5 -0.0013614284107461572
3.52538627339527e-5 -0.00010044419468613341 -0.0012835809029638767
3.184030356351286e-5 -0.00011247244401602075 -0.0012062577297911048
2.7618556487141177e-5 -0.00010978621867252514 -0.0011302217608317733
2.2772850570618175e-5 -8.644490299047902e-5 -0.0010559929069131613
1.7538583051646128e-5 -3.759871469810605e-5 -0.000983995501883328
1.2180190424260218e-5 4.274453749530949e-5 -0.0009147536475211383
6.969491550989915e-6 0.00015825542504899204 -0.0008485885919071734
2.165645810237038e-6 0.00030492793302983046 -0.0007851498667150736
-2.002310793614015e-6 0.00046969699906185275 -0.0007232943316921592
-5.3496896725846455e-6 0.0006324092973954976 -0.0006612588767893612
-7.746687515464146e-6 0.0007695587119087577 -0.0005969869671389461
-9.125015822064597e-6 0.0008585565374232829 -0.0005285023362375796
-4.777483354700962e-6 0.00044419243931770325 -0.00024648825637996197

CELL_DATA 50

VECTORS liftinglineloading               float
0.03514867648482323 0.053521689027547836 -1.9823748662791812e-16
-0.018555764108896255 0.0010867880191653967 -4.02532390411782e-18
0.055884264409542084 0.07184363901615143 -2.6609966201445432e-16
0.0788850411772728 0.11297166347503661 -4.184325818777299e-16
-0.09604804217815399 0.18143722414970398 -6.720202173024785e-16
-0.6453713178634644 0.3184982240200043 -1.1796766558055754e-15
-1.348659634590149 0.5514523386955261 -2.042508779229418e-15
-2.261953830718994 0.7782222032546997 -2.882435331814492e-15
-3.303652286529541 1.0101616382598877 -3.7415092759304856e-15
-4.3138251304626465 1.217568278312683 -4.509717337113301e-15
-5.124627590179443 1.3530079126358032 -5.01136794144345e-15
-6.088729381561279 1.5269197225570679 -5.655515322006664e-15
-7.040213108062744 1.6628850698471072 -6.159113678599026e-15
-7.115806102752686 1.6342921257019043 -6.053209149203819e-15
-7.436968803405762 1.6172997951507568 -5.9902712130910355e-15
-7.9485907554626465 1.6339348554611204 -6.051885660223735e-15
-8.214533805847168 1.6118333339691162 -5.970024161036343e-15
-8.656692504882812 1.6062382459640503 -5.9493006529488186e-15
-8.974562644958496 1.5959253311157227 -5.911102855159439e-15
-9.103641510009766 1.6007442474365234 -5.928951533423982e-15
-9.392820358276367 1.589529037475586 -5.88741176714121e-15
-9.66904354095459 1.5384511947631836 -5.698226111339015e-15
-9.66608715057373 1.4787652492523193 -5.477156864852747e-15
-9.7955322265625 1.446779727935791 -5.358686601685024e-15
-9.92775821685791 1.4082567691802979 -5.21600305468709e-15
-10.125825881958008 1.3789002895355225 -5.107269858764529e-15
-10.384897232055664 1.3463821411132812 -4.986826855862651e-15
-10.568869590759277 1.3049829006195068 -4.833489751970626e-15
-10.847709655761719 1.2615816593170166 -4.672737298141863e-15
-11.148359298706055 1.2158968448638916 -4.503526373301819e-15
-11.255688667297363 1.1619489192962646 -4.303710030495109e-15
-11.79494857788086 1.1350547075271606 -4.2040972618321085e-15
-11.849234580993652 1.0713709592819214 -3.968221032394888e-15
-11.869569778442383 1.0274643898010254 -3.805596635752693e-15
-11.864669799804688 0.9908592104911804 -3.670015460017486e-15
-11.805756568908691 0.956057906150818 -3.5411161036866947e-15
-11.697344779968262 0.9361729025840759 -3.4674646830988023e-15
-11.539571762084961 0.9207397103309631 -3.4103020293786354e-15
-11.2310791015625 0.9017449021339418 -3.33994768453793e-15
-10.860304832458496 0.8784648776054382 -3.2537214245733368e-15
-10.559938430786133 0.8525730967521667 -3.1578216248346258e-15
-9.922996520996094 0.8188043236732483 -3.0327464105024512e-15
-8.96327018737793 0.9222688078880309 -3.415965715180451e-15
-7.648891925811768 0.9842001199722289 -3.645351131142862e-15
-6.569519996643066 1.151764988899231 -4.26598995928798e-15
-5.463266849517822 1.209481954574585 -4.479766675614862e-15
-4.634860515594482 1.24713134765625 -4.619214980270759e-15
-3.6940915584564213 1.2891565561294556 -4.774870836855892e-15
-2.801281690597534 1.3118653297424316 -4.8589812085182444e-15
-1.5044986009597778 1.3678398132324219 -5.066303533787049e-15