# vtk DataFile Version 4.0
 
ASCII
DATASET UNSTRUCTURED_GRID
POINTS 51 float
0.0029255072586238384 0.007582739926874637 4.9833168304758146e-5
0.0024741466622799635 0.010951569303870201 0.0024508105125278234
0.0021053405944257975 0.014471272937953474 0.004503847565501928
0.0016511689173057675 0.01800698973238468 0.006401547696441411
0.001117104198783636 0.02154938504099846 0.008157243020832539
0.0006340054678730667 0.024980880320072174 0.009938850067555904
0.0003643686359282583 0.028103549033403393 0.012029039673507214
0.0003691194870043546 0.031045198440551758 0.01424528378993273
0.000572872522752732 0.03400494158267975 0.01630321703851223
0.0008646587957628071 0.036831192672252655 0.018419329077005386
0.0011637704446911812 0.039581991732120514 0.020510731264948845
0.001422586850821972 0.042333975434303284 0.022467972710728645
0.0016198125667870045 0.045040685683488846 0.024357402697205544
0.0017542806454002857 0.04765209183096886 0.02625046856701374
0.001837961026467383 0.050172675400972366 0.028140777722001072
0.0018885409226641061 0.05263475701212883 0.029982171952724453
0.001923572504892945 0.055068232119083405 0.031731944531202316
0.0019564125686883926 0.05747996270656586 0.033380307257175446
0.0019946848042309284 0.05984985828399659 0.0349559523165226
0.002041437430307269 0.06214888021349907 0.03650033846497536
0.00209671794436872 0.06435792148113251 0.03804076835513115
0.002158778952434659 0.0664765015244484 0.039577923715114594
0.002224987605586648 0.06851628422737122 0.04109513759613037
0.002292493125423789 0.07049090415239334 0.04257294908165932
0.0023586952593177557 0.07241057604551315 0.043996769934892654
0.0024215481244027615 0.07428126782178879 0.04535806551575661
0.0024797271471470594 0.07610500603914261 0.046653956174850464
0.0025326928589493036 0.07788031548261642 0.04788653552532196
0.0025806704070419073 0.07960283011198044 0.04906204715371132
0.002624556189402938 0.08126601576805115 0.05018983036279678
0.0026656491681933403 0.08286265283823013 0.0512801744043827
0.0027052650693804026 0.0843869000673294 0.05234144255518913
0.002744461176916957 0.0858355239033699 0.05337823554873466
0.002783895470201969 0.08720841258764267 0.054390724748373025
0.0028237823862582445 0.08850846439599991 0.055374771356582635
0.0028639202937483788 0.08974108099937439 0.05632264912128448
0.0029037625063210726 0.09091345965862274 0.057224091142416
0.0029425176326185465 0.09203323721885681 0.05806819349527359
0.002979256911203265 0.0931052565574646 0.05884802713990211
0.0030130252707749605 0.09412892162799835 0.05956444516777993
0.003042937722057104 0.09509793668985367 0.0602264441549778
0.003068262478336692 0.09600166231393814 0.060849227011203766
0.003088483354076743 0.0968269482254982 0.06145156174898147
0.0031033395789563656 0.09755756705999374 0.06205662339925765
0.0031128437258303165 0.09817347675561905 0.0626930370926857
0.003117278451099992 0.09865423291921616 0.06339000910520554
0.0031171750742942095 0.09898439049720764 0.06416957825422287
0.003113273996859789 0.09915854781866074 0.06503947824239731
0.0031064755748957396 0.09918449074029922 0.06598858535289764
0.003097780514508486 0.09908386319875717 0.06698597967624664
0.0030882256105542183 0.09889046102762222 0.06798340380191803

CELLS 50 150
2 0 1
2 1 2
2 2 3
2 3 4
2 4 5
2 5 6
2 6 7
2 7 8
2 8 9
2 9 10
2 10 11
2 11 12
2 12 13
2 13 14
2 14 15
2 15 16
2 16 17
2 17 18
2 18 19
2 19 20
2 20 21
2 21 22
2 22 23
2 23 24
2 24 25
2 25 26
2 26 27
2 27 28
2 28 29
2 29 30
2 30 31
2 31 32
2 32 33
2 33 34
2 34 35
2 35 36
2 36 37
2 37 38
2 38 39
2 39 40
2 40 41
2 41 42
2 42 43
2 43 44
2 44 45
2 45 46
2 46 47
2 47 48
2 48 49
2 49 50

CELL_TYPES 50
4
4
4
4
4
4
4
4
4
4
4
4
4
4
4
4
4
4
4
4
4
4
4
4
4
4
4
4
4
4
4
4
4
4
4
4
4
4
4
4
4
4
4
4
4
4
4
4
4
4

POINT_DATA 51

SCALARS zone float
LOOKUP_TABLE default
1.0
1.0
1.0
1.0
1.0
1.0
1.0
1.0
1.0
1.0
1.0
1.0
1.0
1.0
1.0
1.0
1.0
1.0
1.0
1.0
1.0
1.0
1.0
1.0
1.0
1.0
1.0
1.0
1.0
1.0
1.0
1.0
1.0
1.0
1.0
1.0
1.0
1.0
1.0
1.0
1.0
1.0
1.0
1.0
1.0
1.0
1.0
1.0
1.0
1.0
1.0

VECTORS normals float
-0.00022568028362002224 0.0016844145720824597 0.0012004886521026492
-0.00041008330299519 0.003444266738370061 0.0022270071785897017
-0.0004114889306947589 0.003527710447087884 0.001975368708372116
-0.0004941182560287416 0.0035390558186918497 0.0018266974948346617
-0.00050858169561252 0.0034869450610131025 0.0017686511855572464
-0.00037636776687577367 0.003277081996202469 0.0019358983263373375
-0.00013244299043435603 0.003032158827409148 0.002153216628357768
0.00010425192886032163 0.0029506965074688196 0.0021370884496718645
0.00024776963982731104 0.002892997581511736 0.0020870226435363293
0.00029544899007305503 0.0027885246090590954 0.002103757578879595
0.00027896405663341284 0.002751390915364027 0.002024321584030986
0.00022802104649599642 0.0027293465100228786 0.0019233359489589927
0.00016584688273724169 0.002659059362486005 0.0018912480445578694
0.00010907424439210443 0.002565996255725622 0.0018916875123977661
6.713013135595247e-5 0.0024913314264267683 0.0018658515764400365
4.280570647097193e-5 0.0024477785918861628 0.0017955832881852987
3.3935823012143373e-5 0.002422603312879801 0.0016990689327940347
3.555617877282202e-5 0.002390812383964658 0.0016120028449222445
4.251242717145942e-5 0.00233445898629725 0.0015600152546539903
5.1016584620811045e-5 0.0022540315985679626 0.0015424094162881374
5.867081563337706e-5 0.00216380855999887 0.00153879274148494
6.413481605704874e-5 0.0020791811402887106 0.0015271850861608982
6.685699190711603e-5 0.0020072031766176224 0.001497511868365109
6.685387052129954e-5 0.0019471452105790374 0.0014508153544738889
6.452756497310475e-5 0.0018951811362057926 0.0013925592647865415
6.0515933000715456e-5 0.001847215462476015 0.0013285931199789047
5.557234908337704e-5 0.001799524761736393 0.001264234073460102
5.047163722338155e-5 0.0017489134334027767 0.0012040461879223585
4.5931661588838324e-5 0.001692847814410925 0.0011516480008140206
4.24893842136953e-5 0.0016299106646329165 0.001109063159674406
4.035446181660518e-5 0.0015604430809617043 0.0010758048156276345
3.940596798202023e-5 0.0014864352997392416 0.0010490305721759796
3.931512765120715e-5 0.0014107576571404934 0.0010246412130072713
3.966056101489812e-5 0.0013364695478230715 0.0009982673218473792
4.001240085926838e-5 0.0012663336237892509 0.0009659634088166059
3.999012187705375e-5 0.0012024990282952785 0.0009246604749932885
3.9298683986999094e-5 0.0011460764799267054 0.0008727718959562479
3.774720971705392e-5 0.0010958962375298142 0.0008119683479890227
3.52538627339527e-5 0.0010478443000465631 0.0007481251959688962
3.184030356351286e-5 0.0009963428601622581 0.0006892086239531636
2.7618556487141177e-5 0.0009363692952319979 0.0006423914455808699
2.2772850570618175e-5 0.0008645032066851854 0.0006125585059635341
1.7538583051646128e-5 0.0007779522566124797 0.0006036977865733206
1.2180190424260218e-5 0.0006732663023285568 0.0006207365076988935
6.969491550989915e-6 0.0005483319400809705 0.0006666929111815989
2.165645810237038e-6 0.0004054557648487389 0.0007382729672826827
-2.002310793614015e-6 0.00025216021458618343 0.000824733404442668
-5.3496896725846455e-6 0.00010004884825320913 0.0009095026180148125
-7.746687515464146e-6 -3.73442453565076e-5 0.0009732519974932076
-9.125015822064597e-6 -0.00014701324107591063 0.0009974072454497218
-4.777483354700962e-6 -9.670044528320432e-5 0.0004987107240594923

CELL_DATA 50

VECTORS liftinglineloading               float
0.021547434851527214 -0.022896423935890198 0.027286896482110023
-0.005885640159249306 -0.008946945890784264 0.010662554763257504
0.0542977936565876 -0.05111777037382126 0.06091978773474694
0.04297858849167824 -0.07813961803913116 0.0931231752038002
-0.15110880136489868 -0.12768621742725372 0.15217050909996033
-0.7136548161506653 -0.21620891988277435 0.25766775012016296
-1.4155349731445312 -0.36344048380851746 0.43313151597976685
-2.3068454265594482 -0.5050442218780518 0.6018882989883423
-3.3309764862060547 -0.6516720652580261 0.77663254737854
-4.31689977645874 -0.7820943593978882 0.9320637583732605
-5.107325077056885 -0.8669254183769227 1.0331615209579468
-6.058286190032959 -0.977111279964447 1.164475917816162
-7.004692077636719 -1.0636777877807617 1.2676419019699097
-7.088754177093506 -1.0461004972457886 1.2466939687728882
-7.408075809478761 -1.0345901250839233 1.2329765558242798
-7.924107074737549 -1.045118808746338 1.2455241680145264
-8.023758888244629 -1.0226105451583862 1.2186998128890991
-8.483586311340332 -1.0214884281158447 1.2173625230789185
-8.92574691772461 -1.019015908241272 1.2144159078598022
-9.079662322998047 -1.0231746435165405 1.219372034072876
-9.465703010559082 -1.0174694061279297 1.2125728130340576
-9.741374969482422 -0.9848555326461793 1.1737051010131836
-9.737189292907715 -0.9463492631912233 1.1278151273727417
-9.866753578186035 -0.9255221486091614 1.1029943227767944
-9.999119758605957 -0.9002722501754762 1.0729026794433594
-10.20341682434082 -0.8811280727386475 1.050087571144104
-10.479534149169922 -0.8599916100502014 1.0248980522155762
-10.758089065551758 -0.8332303762435913 0.9930052757263184
-10.970088005065918 -0.8055996298789978 0.9600762128829957
-11.318455696105957 -0.775463879108429 0.9241618514060974
-11.455317497253418 -0.7397375106811523 0.8815848827362059
-12.010520935058594 -0.720750629901886 0.8589571714401245
-12.063552856445312 -0.6784492135047913 0.8085442781448364
-12.097606658935547 -0.6504995226860046 0.7752351760864258
-12.113391876220703 -0.62716144323349 0.74742192029953
-12.061264991760254 -0.6057381629943848 0.7218906283378601
-11.956753730773926 -0.5940937399864197 0.7080132961273193
-11.801595687866211 -0.5850587487220764 0.6972458958625793
-11.601662635803223 -0.5710869431495667 0.6805948615074158
-11.209900856018066 -0.5574823021888733 0.6643815636634827
-10.896379470825195 -0.5418059825897217 0.6456992030143738
-10.237306594848633 -0.5233855247497559 0.6237465739250183
-9.24013614654541 -0.5916793942451477 0.7051360011100769
-7.905010700225831 -0.6338410377502441 0.7553822994232178
-6.801174640655518 -0.7460522651672363 0.8891104459762574
-5.658316135406494 -0.7849337458610535 0.9354475736618042
-4.808499336242676 -0.809981107711792 0.9652979373931885
-3.8433361053466797 -0.8377930521965028 0.9984428882598877
-2.953167200088501 -0.8558668494224547 1.0199824571609497
-1.5757496356964111 -0.8905434608459472 1.0613083839416504