# vtk DataFile Version 4.0
 
ASCII
DATASET UNSTRUCTURED_GRID
POINTS 51 float
0.0029255072586238384 0.0012676528422161937 0.00747619429603219
0.0024741466622799635 -0.0005118571571074426 0.011210768483579159
0.0021053405944257975 -0.0019225138239562514 0.01503350678831339
0.0016511689173057675 -0.0031774130184203386 0.01884504035115242
0.001117104198783636 -0.004291304387152195 0.022638492286205292
0.0006340054678730667 -0.005449972581118345 0.026327228173613545
0.0003643686359282583 -0.006966161075979471 0.0297654140740633
0.0003691194870043546 -0.008637923747301102 0.03304721787571907
0.000572872522752732 -0.010150637477636337 0.03631935268640518
0.0008646587957628071 -0.011743828654289246 0.0394701287150383
0.0011637704446911812 -0.013325786218047142 0.04254230111837387
0.001422586850821972 -0.014775415882468225 0.04559234902262688
0.0016198125667870045 -0.01616612635552883 0.048586033284664154
0.0017542806454002857 -0.01757696457207203 0.05148649588227272
0.001837961026467383 -0.019000861793756485 0.054297033697366714
0.0018885409226641061 -0.020386744290590286 0.0570414662361145
0.001923572504892945 -0.02168736606836319 0.05974181741476058
0.0019564125686883926 -0.022891895845532417 0.06240314245224
0.0019946848042309284 -0.024032073095440865 0.06501064449548721
0.002041437430307269 -0.02515377663075924 0.0675429180264473
0.00209671794436872 -0.026287209242582325 0.06998588889837265
0.002158778952434659 -0.02743312530219555 0.07233920693397522
0.002224987605586648 -0.028573084622621533 0.07461146265268326
0.002292493125423789 -0.029685553163290027 0.07681270688772202
0.0023586952593177557 -0.030754396691918373 0.07895044982433319
0.0024215481244027615 -0.031770169734954834 0.08102910965681076
0.0024797271471470594 -0.032729681581258774 0.08305017650127411
0.0025326928589493036 -0.033635254949331284 0.08501254767179489
0.0025806704070419073 -0.03449380025267601 0.08691301941871643
0.002624556189402938 -0.03531564027070999 0.08874677121639252
0.0026656491681933403 -0.036112166941165924 0.09050849080085754
0.0027052650693804026 -0.03689262643456459 0.09219386428594589
0.002744461176916957 -0.037662118673324585 0.09380052238702774
0.002783895470201969 -0.038420822471380234 0.09532836824655533
0.0028237823862582445 -0.03916417062282562 0.09677954763174057
0.0028639202937483788 -0.039883606135845184 0.09815803915262222
0.0029037625063210726 -0.04056777060031891 0.0994691401720047
0.0029425176326185465 -0.041204605251550674 0.10071847587823868
0.002979256911203265 -0.04178643599152565 0.10190963000059128
0.0030130252707749605 -0.04231421276926994 0.10304214805364609
0.003042937722057104 -0.042797885835170746 0.10411140322685242
0.003068262478336692 -0.04325427860021591 0.10510953515768051
0.003088483354076743 -0.04370415210723877 0.10602688044309615
0.0031033395789563656 -0.04417315125465393 0.10685146600008011
0.0031128437258303165 -0.04469294100999832 0.10756853222846985
0.003117278451099992 -0.045295845717191696 0.1081630066037178
0.0031171750742942095 -0.04600624367594719 0.10862352699041367
0.003113273996859789 -0.046832676976919174 0.10894609242677689
0.0031064755748957396 -0.04776286706328392 0.10913644731044769
0.003097780514508486 -0.04876257851719856 0.1092105507850647
0.0030882256105542183 -0.04977843165397644 0.10919328778982162

CELLS 50 150
2 0 1
2 1 2
2 2 3
2 3 4
2 4 5
2 5 6
2 6 7
2 7 8
2 8 9
2 9 10
2 10 11
2 11 12
2 12 13
2 13 14
2 14 15
2 15 16
2 16 17
2 17 18
2 18 19
2 19 20
2 20 21
2 21 22
2 22 23
2 23 24
2 24 25
2 25 26
2 26 27
2 27 28
2 28 29
2 29 30
2 30 31
2 31 32
2 32 33
2 33 34
2 34 35
2 35 36
2 36 37
2 37 38
2 38 39
2 39 40
2 40 41
2 41 42
2 42 43
2 43 44
2 44 45
2 45 46
2 46 47
2 47 48
2 48 49
2 49 50

CELL_TYPES 50
4
4
4
4
4
4
4
4
4
4
4
4
4
4
4
4
4
4
4
4
4
4
4
4
4
4
4
4
4
4
4
4
4
4
4
4
4
4
4
4
4
4
4
4
4
4
4
4
4
4

POINT_DATA 51

SCALARS zone float
LOOKUP_TABLE default
1.0
1.0
1.0
1.0
1.0
1.0
1.0
1.0
1.0
1.0
1.0
1.0
1.0
1.0
1.0
1.0
1.0
1.0
1.0
1.0
1.0
1.0
1.0
1.0
1.0
1.0
1.0
1.0
1.0
1.0
1.0
1.0
1.0
1.0
1.0
1.0
1.0
1.0
1.0
1.0
1.0
1.0
1.0
1.0
1.0
1.0
1.0
1.0
1.0
1.0
1.0

VECTORS normals float
-0.00022568028362002224 -0.0008897550287656486 0.001867287210188806
-0.00041008330299519 -0.0015950833912938833 0.0037786562461405993
-0.0004114889306947589 -0.0013327779015526175 0.003817135933786631
-0.0004941182560287416 -0.001184395281597972 0.0038024922832846646
-0.00050858169561252 -0.0011362797813490033 0.0037410936783999205
-0.00037636776687577367 -0.0013374283444136381 0.0035634611267596488
-0.00013244299043435603 -0.001593975583091378 0.003359995549544692
0.00010425192886032163 -0.0015922383172437549 0.003276970237493515
0.00024776963982731104 -0.0015529523370787501 0.003211454255506396
0.00029544899007305503 -0.0015875744866207242 0.0031114742159843445
0.00027896405663341284 -0.001515793614089489 0.0030611108522862196
0.00022802104649599642 -0.0014201700687408447 0.0030218653846532106
0.00016584688273724169 -0.001400774926878512 0.002947073895484209
0.00010907424439210443 -0.0014173679519444704 0.002855501137673855
6.713013135595247e-5 -0.0014048898592591286 0.002777484245598316
4.280570647097193e-5 -0.0013432521373033524 0.002722390927374363
3.3935823012143373e-5 -0.0012525756610557437 0.002680838806554675
3.555617877282202e-5 -0.0011723526986315846 0.002634411910548806
4.251242717145942e-5 -0.0011309406254440546 0.0025698873214423656
5.1016584620811045e-5 -0.001127568306401372 0.0024876242969185114
5.867081563337706e-5 -0.0011396735208109021 0.0023981439881026745
6.413481605704874e-5 -0.0011429376900196075 0.0023127866443246603
6.685699190711603e-5 -0.001126214163377881 0.0022367495112121105
6.685387052129954e-5 -0.0010906559182330966 0.0021694949828088284
6.452756497310475e-5 -0.001042308402247727 0.00210820441134274
6.0515933000715456e-5 -0.0009876431431621313 0.002049859846010804
5.557234908337704e-5 -0.0009325433638878167 0.001991717843338847
5.047163722338155e-5 -0.0008820584043860434 0.001931424019858241
4.5931661588838324e-5 -0.000840191962197423 0.0018671111902222037
4.24893842136953e-5 -0.0008091829367913306 0.001797735458239913
4.035446181660518e-5 -0.0007884928490966558 0.0017235480481758716
3.940596798202023e-5 -0.0007749766227789223 0.001646015327423811
3.931512765120715e-5 -0.000764099124353379 0.0015672520967200398
3.966056101489812e-5 -0.0007510259747505188 0.0014895128551870584
4.001240085926838e-5 -0.0007313917740248144 0.001414833008311689
3.999012187705375e-5 -0.0007018010364845395 0.0013447959208860993
3.9298683986999094e-5 -0.0006604984519071877 0.0012802202254533768
3.774720971705392e-5 -0.0006093323463574052 0.0012202438665553927
3.52538627339527e-5 -0.0005548032349906862 0.0011618358548730612
3.184030356351286e-5 -0.000505724863614887 0.0011008860310539603
2.7618556487141177e-5 -0.00047003323561511934 0.0010336939012631774
2.2772850570618175e-5 -0.0004531329905148596 0.0009577391319908202
1.7538583051646128e-5 -0.000459436298115179 0.0008709644316695632
1.2180190424260218e-5 -0.0004943946842104197 0.0007708276389166713
6.969491550989915e-6 -0.0005613475223071873 0.0006557715823873878
2.165645810237038e-6 -0.0006566502852365375 0.000527495751157403
-2.002310793614015e-6 -0.0007684166776016355 0.00039154276601038873
-5.3496896725846455e-6 -0.0008783119264990091 0.0002564623428042978
-7.746687515464146e-6 -0.0009649508283473552 0.00013222653069533408
-9.125015822064597e-6 -0.0010077828774228692 2.8418167858035304e-5
-4.777483354700962e-6 -0.0005079260445199907 -8.631138371129055e-6

CELL_DATA 50

VECTORS liftinglineloading               float
0.014739577658474445 -0.022000135853886604 -0.012701784260571003
0.008188173174858093 -0.02543417923152447 -0.014684430323541164
0.04717997461557388 -0.07277287542819977 -0.0420154370367527
0.006139612291008234 -0.11238817125558852 -0.06488733738660812
-0.2522273361682892 -0.19559034705162048 -0.11292414367198944
-0.8611490726470947 -0.321729838848114 -0.185750812292099
-1.6239831447601318 -0.5205612182617188 -0.30054613947868347
-2.536064624786377 -0.7090110778808594 -0.40934774279594416
-3.628455877304077 -0.9135553240776063 -0.5274414420127869
-4.6579694747924805 -1.0914922952651978 -0.63017338514328
-5.4888834953308105 -1.2078077793121338 -0.6973281502723694
-6.446311950683594 -1.3559839725494385 -0.7828776836395264
-7.364151477813722 -1.4661939144134521 -0.8465074300765992
-7.3825297355651855 -1.4319723844528198 -0.8267496824264527
-7.713637351989746 -1.4180097579956055 -0.8186882734298706
-8.19260025024414 -1.4271990060806274 -0.8239937424659729
-8.438861846923828 -1.4027436971664429 -0.8098744750022888
-8.82188892364502 -1.3897584676742554 -0.8023774027824402
-9.109508514404297 -1.3783226013183594 -0.7957749366760254
-9.170503616333008 -1.381096601486206 -0.7973764538764954
-9.485567092895508 -1.3698445558547974 -0.7908800840377808
-9.686902046203613 -1.323643445968628 -0.7642058730125427
-9.605774879455566 -1.2700954675674438 -0.7332899570465088
-9.659430503845215 -1.2414050102233887 -0.7167255282402039
-10.40385627746582 -1.2178362607955933 -0.7031181454658508
-10.511661529541016 -1.188987374305725 -0.6864622235298157
-10.71174430847168 -1.1589126586914062 -0.6690985560417175
-10.930134773254395 -1.1228991746902466 -0.648306131362915
-11.174741744995117 -1.0847841501235962 -0.6263004541397095
-11.448909759521484 -1.0443466901779175 -0.6029538512229919
-11.519672393798828 -0.9969285726547241 -0.5755769610404968
-12.02729320526123 -0.9723767042160034 -0.5614019632339478
-12.047223091125488 -0.9166330695152283 -0.529218316078186
-12.057818412780762 -0.8797547817230225 -0.5079266428947449
-12.046542167663574 -0.8491864800453186 -0.49027803540229803
-11.983747482299805 -0.8202340602874756 -0.47356235980987554
-11.870779037475586 -0.8042668700218201 -0.4643436968326568
-11.706634521484375 -0.7918893098831177 -0.4571975171566009
-11.496272087097168 -0.7730008363723755 -0.4462922215461731
-11.097155570983887 -0.7543789744377136 -0.4355408847332001
-10.773398399353027 -0.733079731464386 -0.4232437908649445
-10.107439041137695 -0.7067363262176514 -0.40803441405296326
-9.11101245880127 -0.797789454460144 -0.4606039524078369
-7.7708587646484375 -0.8530170917510986 -0.4924896359443665
-6.66615629196167 -1.0006866455078125 -0.5777467489242554
-5.538077354431152 -1.051416277885437 -0.6070354580879211
-4.691408634185791 -1.083841323852539 -0.6257560849189758
-3.7340571880340576 -1.11991548538208 -0.6465834975242615
-2.826634168624878 -1.139187216758728 -0.6577100157737732
-1.5152746438980103 -1.1870787143707275 -0.6853601932525635