# vtk DataFile Version 4.0
 
ASCII
DATASET UNSTRUCTURED_GRID
POINTS 51 float
0.0029255072586238384 -0.00747619429603219 0.0012676528422161937
0.0024741466622799635 -0.011210768483579159 -0.0005118571571074426
0.0021053405944257975 -0.01503350678831339 -0.0019225138239562514
0.0016511689173057675 -0.01884504035115242 -0.0031774130184203386
0.001117104198783636 -0.022638492286205292 -0.004291304387152195
0.0006340054678730667 -0.026327228173613545 -0.005449972581118345
0.0003643686359282583 -0.0297654140740633 -0.006966161075979471
0.0003691194870043546 -0.03304721787571907 -0.008637923747301102
0.000572872522752732 -0.03631935268640518 -0.010150637477636337
0.0008646587957628071 -0.0394701287150383 -0.011743828654289246
0.0011637704446911812 -0.04254230111837387 -0.013325786218047142
0.001422586850821972 -0.04559234902262688 -0.014775415882468225
0.0016198125667870045 -0.048586033284664154 -0.01616612635552883
0.0017542806454002857 -0.05148649588227272 -0.01757696457207203
0.001837961026467383 -0.054297033697366714 -0.019000861793756485
0.0018885409226641061 -0.0570414662361145 -0.020386744290590286
0.001923572504892945 -0.05974181741476058 -0.02168736606836319
0.0019564125686883926 -0.06240314245224 -0.022891895845532417
0.0019946848042309284 -0.06501064449548721 -0.024032073095440865
0.002041437430307269 -0.0675429180264473 -0.02515377663075924
0.00209671794436872 -0.06998588889837265 -0.026287209242582325
0.002158778952434659 -0.07233920693397522 -0.02743312530219555
0.002224987605586648 -0.07461146265268326 -0.028573084622621533
0.002292493125423789 -0.07681270688772202 -0.029685553163290027
0.0023586952593177557 -0.07895044982433319 -0.030754396691918373
0.0024215481244027615 -0.08102910965681076 -0.031770169734954834
0.0024797271471470594 -0.08305017650127411 -0.032729681581258774
0.0025326928589493036 -0.08501254767179489 -0.033635254949331284
0.0025806704070419073 -0.08691301941871643 -0.03449380025267601
0.002624556189402938 -0.08874677121639252 -0.03531564027070999
0.0026656491681933403 -0.09050849080085754 -0.036112166941165924
0.0027052650693804026 -0.09219386428594589 -0.03689262643456459
0.002744461176916957 -0.09380052238702774 -0.037662118673324585
0.002783895470201969 -0.09532836824655533 -0.038420822471380234
0.0028237823862582445 -0.09677954763174057 -0.03916417062282562
0.0028639202937483788 -0.09815803915262222 -0.039883606135845184
0.0029037625063210726 -0.0994691401720047 -0.04056777060031891
0.0029425176326185465 -0.10071847587823868 -0.041204605251550674
0.002979256911203265 -0.10190963000059128 -0.04178643599152565
0.0030130252707749605 -0.10304214805364609 -0.04231421276926994
0.003042937722057104 -0.10411140322685242 -0.042797885835170746
0.003068262478336692 -0.10510953515768051 -0.04325427860021591
0.003088483354076743 -0.10602688044309615 -0.04370415210723877
0.0031033395789563656 -0.10685146600008011 -0.04417315125465393
0.0031128437258303165 -0.10756853222846985 -0.04469294100999832
0.003117278451099992 -0.1081630066037178 -0.045295845717191696
0.0031171750742942095 -0.10862352699041367 -0.04600624367594719
0.003113273996859789 -0.10894609242677689 -0.046832676976919174
0.0031064755748957396 -0.10913644731044769 -0.04776286706328392
0.003097780514508486 -0.1092105507850647 -0.04876257851719856
0.0030882256105542183 -0.10919328778982162 -0.04977843165397644

CELLS 50 150
2 0 1
2 1 2
2 2 3
2 3 4
2 4 5
2 5 6
2 6 7
2 7 8
2 8 9
2 9 10
2 10 11
2 11 12
2 12 13
2 13 14
2 14 15
2 15 16
2 16 17
2 17 18
2 18 19
2 19 20
2 20 21
2 21 22
2 22 23
2 23 24
2 24 25
2 25 26
2 26 27
2 27 28
2 28 29
2 29 30
2 30 31
2 31 32
2 32 33
2 33 34
2 34 35
2 35 36
2 36 37
2 37 38
2 38 39
2 39 40
2 40 41
2 41 42
2 42 43
2 43 44
2 44 45
2 45 46
2 46 47
2 47 48
2 48 49
2 49 50

CELL_TYPES 50
4
4
4
4
4
4
4
4
4
4
4
4
4
4
4
4
4
4
4
4
4
4
4
4
4
4
4
4
4
4
4
4
4
4
4
4
4
4
4
4
4
4
4
4
4
4
4
4
4
4

POINT_DATA 51

SCALARS zone float
LOOKUP_TABLE default
1.0
1.0
1.0
1.0
1.0
1.0
1.0
1.0
1.0
1.0
1.0
1.0
1.0
1.0
1.0
1.0
1.0
1.0
1.0
1.0
1.0
1.0
1.0
1.0
1.0
1.0
1.0
1.0
1.0
1.0
1.0
1.0
1.0
1.0
1.0
1.0
1.0
1.0
1.0
1.0
1.0
1.0
1.0
1.0
1.0
1.0
1.0
1.0
1.0
1.0
1.0

VECTORS normals float
-0.00022568028362002224 -0.001867287210188806 -0.0008897550287656486
-0.00041008330299519 -0.0037786562461405993 -0.0015950833912938833
-0.0004114889306947589 -0.003817135933786631 -0.0013327779015526175
-0.0004941182560287416 -0.0038024922832846646 -0.001184395281597972
-0.00050858169561252 -0.0037410936783999205 -0.0011362797813490033
-0.00037636776687577367 -0.0035634611267596488 -0.0013374283444136381
-0.00013244299043435603 -0.003359995549544692 -0.001593975583091378
0.00010425192886032163 -0.003276970237493515 -0.0015922383172437549
0.00024776963982731104 -0.003211454255506396 -0.0015529523370787501
0.00029544899007305503 -0.0031114742159843445 -0.0015875744866207242
0.00027896405663341284 -0.0030611108522862196 -0.001515793614089489
0.00022802104649599642 -0.0030218653846532106 -0.0014201700687408447
0.00016584688273724169 -0.002947073895484209 -0.001400774926878512
0.00010907424439210443 -0.002855501137673855 -0.0014173679519444704
6.713013135595247e-5 -0.002777484245598316 -0.0014048898592591286
4.280570647097193e-5 -0.002722390927374363 -0.0013432521373033524
3.3935823012143373e-5 -0.002680838806554675 -0.0012525756610557437
3.555617877282202e-5 -0.002634411910548806 -0.0011723526986315846
4.251242717145942e-5 -0.0025698873214423656 -0.0011309406254440546
5.1016584620811045e-5 -0.0024876242969185114 -0.001127568306401372
5.867081563337706e-5 -0.0023981439881026745 -0.0011396735208109021
6.413481605704874e-5 -0.0023127866443246603 -0.0011429376900196075
6.685699190711603e-5 -0.0022367495112121105 -0.001126214163377881
6.685387052129954e-5 -0.0021694949828088284 -0.0010906559182330966
6.452756497310475e-5 -0.00210820441134274 -0.001042308402247727
6.0515933000715456e-5 -0.002049859846010804 -0.0009876431431621313
5.557234908337704e-5 -0.001991717843338847 -0.0009325433638878167
5.047163722338155e-5 -0.001931424019858241 -0.0008820584043860434
4.5931661588838324e-5 -0.0018671111902222037 -0.000840191962197423
4.24893842136953e-5 -0.001797735458239913 -0.0008091829367913306
4.035446181660518e-5 -0.0017235480481758716 -0.0007884928490966558
3.940596798202023e-5 -0.001646015327423811 -0.0007749766227789223
3.931512765120715e-5 -0.0015672520967200398 -0.000764099124353379
3.966056101489812e-5 -0.0014895128551870584 -0.0007510259747505188
4.001240085926838e-5 -0.001414833008311689 -0.0007313917740248144
3.999012187705375e-5 -0.0013447959208860993 -0.0007018010364845395
3.9298683986999094e-5 -0.0012802202254533768 -0.0006604984519071877
3.774720971705392e-5 -0.0012202438665553927 -0.0006093323463574052
3.52538627339527e-5 -0.0011618358548730612 -0.0005548032349906862
3.184030356351286e-5 -0.0011008860310539603 -0.000505724863614887
2.7618556487141177e-5 -0.0010336939012631774 -0.00047003323561511934
2.2772850570618175e-5 -0.0009577391319908202 -0.0004531329905148596
1.7538583051646128e-5 -0.0008709644316695632 -0.000459436298115179
1.2180190424260218e-5 -0.0007708276389166713 -0.0004943946842104197
6.969491550989915e-6 -0.0006557715823873878 -0.0005613475223071873
2.165645810237038e-6 -0.000527495751157403 -0.0006566502852365375
-2.002310793614015e-6 -0.00039154276601038873 -0.0007684166776016355
-5.3496896725846455e-6 -0.0002564623428042978 -0.0008783119264990091
-7.746687515464146e-6 -0.00013222653069533408 -0.0009649508283473552
-9.125015822064597e-6 -2.8418167858035304e-5 -0.0010077828774228692
-4.777483354700962e-6 8.631138371129055e-6 -0.0005079260445199907

CELL_DATA 50

VECTORS liftinglineloading               float
0.06488323211669922 0.03959463909268379 -0.06857992708683014
0.05215209349989891 0.04072873666882515 -0.07054424285888672
-0.014341110363602638 0.02365979552268982 -0.04097997024655342
0.1322585493326187 0.04580700024962425 -0.07934005558490753
0.06532206386327744 0.06373320519924164 -0.11038915067911147
-0.39147281646728516 0.12574325501918793 -0.21779371798038483
-1.0776443481445312 0.24496205151081085 -0.42428672313690186
-2.053766965866089 0.37256306409835815 -0.6452981233596802
-3.0541372299194336 0.4877429902553558 -0.8447956442832948
-4.09030818939209 0.5960685014724731 -1.0324208736419678
-4.911404609680176 0.6658768057823181 -1.1533324718475342
-5.876794815063477 0.7520843148231506 -1.3026483058929443
-6.813023090362549 0.8194935917854308 -1.4194045066833496
-6.901069164276122 0.8076278567314148 -1.3988524675369263
-7.1344008445739755 0.7936358451843262 -1.374617576599121
-7.602737903594972 0.8005666136741638 -1.3866220712661743
-7.821423053741454 0.7896764874458313 -1.3677598237991333
-8.271077156066895 0.7908300757408142 -1.369757890701294
-8.551936149597168 0.7856651544570923 -1.3608120679855347
-8.724516868591309 0.7875930666923523 -1.3641512393951416
-9.09971809387207 0.7852321267127991 -1.3600618839263916
-9.375616073608398 0.7601439356803894 -1.31660795211792
-9.332275390625 0.7307884693145752 -1.2657628059387207
-9.459407806396484 0.7157450318336487 -1.2397067546844482
-9.64625072479248 0.698784351348877 -1.2103300094604492
-9.886411666870117 0.6856012344360352 -1.1874961853027344
-10.171278953552246 0.6704803109169006 -1.1613059043884277
-10.423835754394531 0.6500720977783203 -1.12595796585083
-10.715866088867188 0.6290407776832581 -1.08953058719635
-11.031672477722168 0.6068686842918396 -1.0511274337768555
-11.161444664001465 0.5804663300514221 -1.005397081375122
-11.723729133605957 0.5674570202827454 -0.9828643798828125
-11.769972801208496 0.5363090634346008 -0.9289145469665526
-11.801868438720703 0.5144578218460083 -0.8910670280456543
-11.80506706237793 0.49625220894813543 -0.8595340251922606
-11.751946449279785 0.47891899943351746 -0.8295120596885682
-11.6484375 0.4689978063106537 -0.8123279809951781
-11.495332717895508 0.46131190657615667 -0.7990156412124634
-11.298440933227539 0.45001924037933344 -0.7794561982154846
-10.924764633178711 0.4386240243911743 -0.7597191333770752
-10.627059936523438 0.4257987439632416 -0.7375050783157349
-9.994302749633789 0.4093376398086548 -0.7089935541152954
-9.036629676818848 0.46141955256462097 -0.7992020845413208
-7.727598667144775 0.4929395914077759 -0.853796422481537
-6.677803993225098 0.5786162614822388 -1.002192735671997
-5.5696187019348145 0.6086350679397583 -1.0541869401931763
-4.739292621612549 0.6282221078872681 -1.0881125926971436
-3.7923860549926753 0.6500551104545593 -1.125928521156311
-2.8874402046203613 0.6623439192771912 -1.147213339805603
-1.5581873655319214 0.6911706924438477 -1.1971428394317627