# vtk DataFile Version 4.0
 
ASCII
DATASET UNSTRUCTURED_GRID
POINTS 51 float
0.0029255072586238384 0.0031594401225447655 0.006893356796354056
0.0024741466622799635 0.002407144522294402 0.010961249470710754
0.0021053405944257975 0.002033952157944441 0.01501883566379547
0.0016511689173057675 0.0018083101604133842 0.01902528665959835
0.001117104198783636 0.0017141910502687097 0.02297777496278286
0.0006340054678730667 0.0015497187850996852 0.0268407054245472
0.0003643686359282583 0.0009750610333867371 0.030554156750440598
0.0003691194870043546 0.00020965616567991674 0.03415682166814804
0.000572872522752732 -0.0004046224639751017 0.03770897909998894
0.0008646587957628071 -0.0011280464241281152 0.041164740920066833
0.0011637704446911812 -0.0018609632970765233 0.044541675597429276
0.001422586850821972 -0.002471787156537175 0.04786298796534538
0.0016198125667870045 -0.0030402885749936104 0.051114607602357864
0.0017542806454002857 -0.0036523586604744196 0.05428139120340347
0.001837961026467383 -0.004300317261368036 0.057364694774150855
0.0018885409226641061 -0.004928665701299906 0.06037430092692376
0.001923572504892945 -0.00548606738448143 0.06331926584243774
0.0019564125686883926 -0.005960751790553331 0.06620166450738907
0.0019946848042309284 -0.006387207191437483 0.06901541352272034
0.002041437430307269 -0.006815290078520776 0.07175172120332718
0.00209671794436872 -0.00727781280875206 0.07440480589866638
0.002158778952434659 -0.007775599602609873 0.07697451859712601
0.002224987605586648 -0.008288612589240074 0.0794643983244896
0.002292493125423789 -0.008793451823294163 0.08187855780124664
0.0023586952593177557 -0.009272584691643715 0.08422010391950607
0.0024215481244027615 -0.009715749882161617 0.08649083971977234
0.0024797271471470594 -0.010119479149580002 0.08869136869907379
0.0025326928589493036 -0.010486296378076077 0.09082125872373581
0.0025806704070419073 -0.010823706164956093 0.09287918359041214
0.002624556189402938 -0.011142934672534466 0.094863161444664
0.0026656491681933403 -0.011456351727247238 0.0967710092663765
0.0027052650693804026 -0.011774011887609959 0.09860095381736755
0.002744461176916957 -0.012101450935006142 0.10035201907157898
0.002783895470201969 -0.012438868172466755 0.10202417522668839
0.0028237823862582445 -0.012781293131411076 0.1036183014512062
0.0028639202937483788 -0.013119436800479889 0.10513602197170258
0.0029037625063210726 -0.013440951704978943 0.1065795198082924
0.0029425176326185465 -0.013732731342315674 0.10795111209154128
0.002979256911203265 -0.013986445963382723 0.10925226658582687
0.0030130252707749605 -0.01420311816036701 0.11048279702663422
0.003042937722057104 -0.014393570832908154 0.11164079606533052
0.003068262478336692 -0.014576073735952376 0.11272304505109788
0.003088483354076743 -0.014773194678127766 0.11372556537389755
0.0031033395789563656 -0.015012792311608791 0.11464344710111618
0.0031128437258303165 -0.01532928179949522 0.11547061055898666
0.003117278451099992 -0.015757780522108078 0.11620087176561356
0.0031171750742942095 -0.016324780881404877 0.1168295592069626
0.003113273996859789 -0.017039569094777107 0.11735503375530244
0.0031064755748957396 -0.01788879558444023 0.1177796572446823
0.003097780514508486 -0.018835265189409256 0.11810997128486633
0.0030882256105542183 -0.01982097141444683 0.11835622042417526

CELLS 50 150
2 0 1
2 1 2
2 2 3
2 3 4
2 4 5
2 5 6
2 6 7
2 7 8
2 8 9
2 9 10
2 10 11
2 11 12
2 12 13
2 13 14
2 14 15
2 15 16
2 16 17
2 17 18
2 18 19
2 19 20
2 20 21
2 21 22
2 22 23
2 23 24
2 24 25
2 25 26
2 26 27
2 27 28
2 28 29
2 29 30
2 30 31
2 31 32
2 32 33
2 33 34
2 34 35
2 35 36
2 36 37
2 37 38
2 38 39
2 39 40
2 40 41
2 41 42
2 42 43
2 43 44
2 44 45
2 45 46
2 46 47
2 47 48
2 48 49
2 49 50

CELL_TYPES 50
4
4
4
4
4
4
4
4
4
4
4
4
4
4
4
4
4
4
4
4
4
4
4
4
4
4
4
4
4
4
4
4
4
4
4
4
4
4
4
4
4
4
4
4
4
4
4
4
4
4

POINT_DATA 51

SCALARS zone float
LOOKUP_TABLE default
1.0
1.0
1.0
1.0
1.0
1.0
1.0
1.0
1.0
1.0
1.0
1.0
1.0
1.0
1.0
1.0
1.0
1.0
1.0
1.0
1.0
1.0
1.0
1.0
1.0
1.0
1.0
1.0
1.0
1.0
1.0
1.0
1.0
1.0
1.0
1.0
1.0
1.0
1.0
1.0
1.0
1.0
1.0
1.0
1.0
1.0
1.0
1.0
1.0
1.0
1.0

VECTORS normals float
-0.00022568028362002224 -0.0003761478583328426 0.002033946570008993
-0.00041008330299519 -0.0005627440405078232 0.0040627396665513515
-0.0004114889306947589 -0.0002994171518366784 0.004032018594443798
-0.0004941182560287416 -0.0001598805538378656 0.003979469649493694
-0.00050858169561252 -0.00012929570220876485 0.00390770984813571
-0.00037636776687577367 -0.0003695649793371558 0.003788190893828869
-0.00013244299043435603 -0.000670031295157969 0.0036580578889697786
0.00010425192886032163 -0.0006898417486809194 0.0035774118732661013
0.00024776963982731104 -0.0006688512512482703 0.0035039603244513273
0.00029544899007305503 -0.0007281703874468803 0.0034163477830588813
0.00027896405663341284 -0.0006718704244121909 0.0033491221256554127
0.00022802104649599642 -0.0005896626971662045 0.003286464838311076
0.00016584688273724169 -0.0005902858101762831 0.0032092020846903324
0.00010907424439210443 -0.0006300142267718911 0.0031250440515577793
6.713013135595247e-5 -0.000638153578620404 0.0030464560259133577
4.280570647097193e-5 -0.0005928752361796796 0.00297728693112731
3.3935823012143373e-5 -0.0005160430446267128 0.0029136817902326584
3.555617877282202e-5 -0.0004505697870627046 0.0028480736073106527
4.251242717145942e-5 -0.000427268969360739 0.00277502927929163
5.1016584620811045e-5 -0.00044530275044962764 0.0026946966536343098
5.867081563337706e-5 -0.00048015476204454893 0.0026113984640687704
6.413481605704874e-5 -0.0005053998320363462 0.0025297943502664566
6.685699190711603e-5 -0.0005089259939268231 0.0024520198348909616
6.685387052129954e-5 -0.0004919861094094813 0.002377853961661458
6.452756497310475e-5 -0.0004611491458490491 0.0023061383981257677
6.0515933000715456e-5 -0.00042344728717580443 0.0022356335539370775
5.557234908337704e-5 -0.0003852731897495687 0.0021652118302881718
5.047163722338155e-5 -0.00035211368231102824 0.0020939058158546686
4.5931661588838324e-5 -0.00032831914722919464 0.0020209485664963722
4.24893842136953e-5 -0.000316322548314929 0.0019459110917523505
4.035446181660518e-5 -0.0003155385493300855 0.0018688965355977414
3.940596798202023e-5 -0.0003225498367100954 0.0017905074637383223
3.931512765120715e-5 -0.00033242834615521133 0.0017116126837208867
3.966056101489812e-5 -0.00033992109820246696 0.0016331387450918555
4.001240085926838e-5 -0.0003402844595257193 0.0015559218591079116
3.999012187705375e-5 -0.00032982893753796816 0.0014806125545874238
3.9298683986999094e-5 -0.00030664712539874017 0.0014075473882257938
3.774720971705392e-5 -0.0002727474784478545 0.0013363718753680587
3.52538627339527e-5 -0.0002351935545448214 0.0012658408377319574
3.184030356351286e-5 -0.0002035624202108011 0.0011942654382437468
2.7618556487141177e-5 -0.00018647756951395422 0.001120125176385045
2.2772850570618175e-5 -0.00018981171888299286 0.00104238442145288
1.7538583051646128e-5 -0.00021835920051671567 0.0009601978817954661
1.2180190424260218e-5 -0.00027804373530671 0.0008725210791453719
6.969491550989915e-6 -0.00037249390152283013 0.0007787141366861761
2.165645810237038e-6 -0.0004977494827471673 0.0006794753717258573
-2.002310793614015e-6 -0.0006408948102034628 0.0005770821589976549
-5.3496896725846455e-6 -0.0007820068276487291 0.0004750474763568491
-7.746687515464146e-6 -0.0008978482219390571 0.00037746867747046053
-9.125015822064597e-6 -0.000966088380664587 0.00028828324866481125
-4.777483354700962e-6 -0.0004928528214804828 0.00012312390026636422

CELL_DATA 50

VECTORS liftinglineloading               float
0.038717687129974365 -0.05543672293424606 -0.014854225330054758
-0.018693014979362488 -0.0008222988690249622 -0.00022033431741874668
0.054224766790866845 -0.06639648973941803 -0.017790885642170906
0.09178458899259567 -0.10603144764900206 -0.02841104008257389
-0.07551885396242142 -0.1688603311777115 -0.04524599015712738
-0.6210946440696716 -0.3013835847377777 -0.08075548708438873
-1.324500560760498 -0.5273738503456116 -0.14130939543247223
-2.2362632751464844 -0.7468081712722778 -0.2001066505908966
-3.2603857517242436 -0.9681600332260131 -0.25941768288612366
-4.286801815032959 -1.171282172203064 -0.31384411454200745
-5.115405082702637 -1.3045660257339478 -0.34955739974975586
-6.093356609344482 -1.4742103815078735 -0.3950134813785553
-7.051939010620118 -1.6061712503433228 -0.43037229776382446
-7.151468276977539 -1.5800354480743408 -0.4233691990375519
-7.47270965576172 -1.563722014427185 -0.4189980626106262
-7.973362445831299 -1.5784461498260498 -0.4229433834552765
-8.227890014648438 -1.5557434558868408 -0.4168601930141449
-8.65292739868164 -1.548872470855713 -0.41501912474632263
-8.953594207763672 -1.5381051301956177 -0.41213402152061457
-9.063996315002441 -1.5418070554733276 -0.4131259620189666
-9.312740325927734 -1.527369737625122 -0.4092575013637543
-9.568819999694824 -1.4778028726577759 -0.39597606658935547
-9.55042552947998 -1.420464277267456 -0.38061225414276123
-9.666557312011719 -1.3901588916778564 -0.3724919557571411
-9.790290832519531 -1.354215145111084 -0.36286085844039917
-9.979633331298828 -1.3270783424377441 -0.3555895686149597
-10.225018501281738 -1.2969743013381958 -0.34752321243286133
-10.444745063781738 -1.2574920654296875 -0.33694398403167725
-10.72310733795166 -1.2166783809661865 -0.32600799202919006
-11.020743370056152 -1.1735724210739136 -0.3144577741622925
-11.137906074523926 -1.1224291324615479 -0.30075398087501526
-11.692214965820312 -1.097297191619873 -0.2940199077129364
-11.7452392578125 -1.0372613668441772 -0.2779333293437958
-11.785736083984375 -0.9942124485969542 -0.26639842987060547
-11.793828010559082 -0.9584485292434691 -0.25681549310684204
-11.747583389282227 -0.9243818521499634 -0.24768736958503723
-11.65178394317627 -0.904725670814514 -0.2424205094575882
-11.506413459777832 -0.889484703540802 -0.2383367121219635
-11.316868782043457 -0.8673467040061952 -0.23240485787391663
-10.948380470275879 -0.845185399055481 -0.22646674513816836
-10.527425765991211 -0.82305508852005 -0.2205369472503662
-9.899829864501953 -0.7901592254638672 -0.21172253787517548
-8.948890686035156 -0.8898992538452148 -0.23844778537750244
-7.641897678375245 -0.9496839642524718 -0.25446704030036926
-6.56846284866333 -1.1116385459899902 -0.2978626489639282
-5.467099189758301 -1.1677347421646118 -0.3128935694694519
-4.642523765563965 -1.2044873237609863 -0.32274138927459717
-3.7045516967773438 -1.2455395460128784 -0.33374130725860596
-2.8129231929779053 -1.2680572271347046 -0.3397749066352844
-1.5130583047866821 -1.3227026462554932 -0.354417085647583