# vtk DataFile Version 4.0
 
ASCII
DATASET UNSTRUCTURED_GRID
POINTS 51 float
0.0029255072586238384 0.006541928742080927 0.003834526753053069
0.0024741466622799635 0.008258931338787079 0.007598248776048422
0.0021053405944257975 0.010280566290020943 0.01113608293235302
0.0016511689173057675 0.012393737211823463 0.014547398313879965
0.001117104198783636 0.014583693817257881 0.01783907227218151
0.0006340054678730667 0.016664652153849602 0.021097736433148384
0.0003643686359282583 0.0183238685131073 0.024469228461384773
0.0003691194870043546 0.019763289019465446 0.02785937674343586
0.000572872522752732 0.021297534927725792 0.031121470034122464
0.0008646587957628071 0.02268708497285843 0.03436720371246338
0.0011637704446911812 0.024023644626140594 0.0375538095831871
0.001422586850821972 0.02542831189930439 0.04062482342123985
0.0016198125667870045 0.026827674359083176 0.043614473193883896
0.0017542806454002857 0.028142688795924187 0.04655962064862251
0.001837961026467383 0.029380423948168755 0.049456965178251266
0.0018885409226641061 0.03059194982051849 0.052282698452472694
0.001923572504892945 0.031824517995119095 0.05501478537917138
0.0019564125686883926 0.03308895230293274 0.05764817818999291
0.0019946848042309284 0.03435352072119713 0.06019767001271248
0.002041437430307269 0.03557233884930611 0.06268466264009476
0.00209671794436872 0.03671520948410034 0.06512323021888733
0.002158778952434659 0.03778137266635895 0.06751373410224915
0.002224987605586648 0.03878927230834961 0.06984757632017136
0.002292493125423789 0.039760440587997437 0.07211470603942871
0.0023586952593177557 0.04071101173758507 0.07430760562419891
0.0024215481244027615 0.041650429368019104 0.07642187178134918
0.0024797271471470594 0.042581889778375626 0.07845601439476013
0.0025326928589493036 0.043503064662218094 0.08041111379861832
0.0025806704070419073 0.04440705105662346 0.0822903960943222
0.002624556189402938 0.04528351500630379 0.08409867435693741
0.0026656491681933403 0.04612107574939728 0.08584126085042953
0.0027052650693804026 0.04691047593951225 0.0875224694609642
0.002744461176916957 0.04764662683010101 0.08914466947317123
0.002783895470201969 0.04832933843135834 0.09070795774459839
0.0028237823862582445 0.048963192850351334 0.09221018850803375
0.0028639202937483788 0.049556732177734375 0.09364738315343857
0.0029037625063210726 0.05012132227420807 0.09501424431800842
0.0029425176326185465 0.050669021904468536 0.09630514681339264
0.002979256911203265 0.05120750144124032 0.0975165143609047
0.0030130252707749605 0.05173581466078758 0.0986487865447998
0.003042937722057104 0.052244007587432854 0.09970659762620926
0.003068262478336692 0.0527152642607689 0.10069780796766281
0.003088483354076743 0.053128812462091446 0.10163208842277527
0.0031033395789563656 0.053459018468856805 0.10252139717340471
0.0031128437258303165 0.05367420613765717 0.10338050127029418
0.003117278451099992 0.05374206602573395 0.10422447323799133
0.0031171750742942095 0.053638204932212837 0.10506468266248703
0.003113273996859789 0.053354084491729736 0.10590511560440063
0.0031064755748957396 0.052901990711688995 0.10674003511667253
0.003097780514508486 0.052316151559352875 0.10755348950624465
0.0030882256105542183 0.051649950444698334 0.10832058638334273

CELLS 50 150
2 0 1
2 1 2
2 2 3
2 3 4
2 4 5
2 5 6
2 6 7
2 7 8
2 8 9
2 9 10
2 10 11
2 11 12
2 12 13
2 13 14
2 14 15
2 15 16
2 16 17
2 17 18
2 18 19
2 19 20
2 20 21
2 21 22
2 22 23
2 23 24
2 24 25
2 25 26
2 26 27
2 27 28
2 28 29
2 29 30
2 30 31
2 31 32
2 32 33
2 33 34
2 34 35
2 35 36
2 36 37
2 37 38
2 38 39
2 39 40
2 40 41
2 41 42
2 42 43
2 43 44
2 44 45
2 45 46
2 46 47
2 47 48
2 48 49
2 49 50

CELL_TYPES 50
4
4
4
4
4
4
4
4
4
4
4
4
4
4
4
4
4
4
4
4
4
4
4
4
4
4
4
4
4
4
4
4
4
4
4
4
4
4
4
4
4
4
4
4
4
4
4
4
4
4

POINT_DATA 51

SCALARS zone float
LOOKUP_TABLE default
1.0
1.0
1.0
1.0
1.0
1.0
1.0
1.0
1.0
1.0
1.0
1.0
1.0
1.0
1.0
1.0
1.0
1.0
1.0
1.0
1.0
1.0
1.0
1.0
1.0
1.0
1.0
1.0
1.0
1.0
1.0
1.0
1.0
1.0
1.0
1.0
1.0
1.0
1.0
1.0
1.0
1.0
1.0
1.0
1.0
1.0
1.0
1.0
1.0
1.0
1.0

VECTORS normals float
-0.00022568028362002224 0.0008585014729760587 0.0018818608950823548
-0.00041008330299519 0.0018693187739700077 0.003650778206065297
-0.0004114889306947589 0.002067402470856905 0.0034745747689157724
-0.0004941182560287416 0.0021515635307878256 0.003351494437083602
-0.00050858169561252 0.002135457471013069 0.0032751692924648523
-0.00037636776687577367 0.0018700871150940654 0.0033150780946016316
-0.00013244299043435603 0.0015493181999772787 0.0033808196894824505
0.00010425192886032163 0.001486833905801177 0.003326121252030134
0.00024776963982731104 0.001461898093111813 0.00325391348451376
0.00029544899007305503 0.001363054383546114 0.003216169774532318
0.00027896405663341284 0.0013706135796383023 0.0031288093887269497
0.00022802104649599642 0.0014020154485478997 0.0030303308740258217
0.00016584688273724169 0.0013571889139711857 0.0029673983808606863
0.00010907424439210443 0.0012763742124661803 0.002921247621998191
6.713013135595247e-5 0.0012246306287124753 0.0028615405317395926
4.280570647097193e-5 0.0012220466742292047 0.0027789101004600525
3.3935823012143373e-5 0.0012485014740377665 0.002682738471776247
3.555617877282202e-5 0.0012645027600228786 0.0025914416182786226
4.251242717145942e-5 0.0012416931567713618 0.00251824245788157
5.1016584620811045e-5 0.0011808439157903194 0.002462781500071287
5.867081563337706e-5 0.0011045169085264206 0.002414537826552987
6.413481605704874e-5 0.0010370311792939901 0.0023621716536581516
6.685699190711603e-5 0.0009895330294966698 0.002300485037267208
6.685387052129954e-5 0.0009608694817870854 0.0022300155833363533
6.452756497310475e-5 0.0009449953795410693 0.0021535821724683046
6.0515933000715456e-5 0.0009354389621876179 0.002074202988296747
5.557234908337704e-5 0.0009263171232305466 0.001994621241465211
5.047163722338155e-5 0.0009125804062932731 0.0019171913154423237
4.5931661588838324e-5 0.0008902251720428466 0.001843780279159546
4.24893842136953e-5 0.0008570125210098923 0.0017754322616383433
4.035446181660518e-5 0.00081348093226552 0.0017118959221988919
3.940596798202023e-5 0.0007627754821442068 0.0016517047770321371
3.931512765120715e-5 0.0007094313623383641 0.001592744141817093
3.966056101489812e-5 0.0006582828355021775 0.001532759633846581
4.001240085926838e-5 0.000613695359788835 0.0014697157312184572
3.999012187705375e-5 0.000579064420890063 0.0014020289527252316
3.9298683986999094e-5 0.0005561453872360289 0.001328880898654461
3.774720971705392e-5 0.0005430897581391037 0.001251133275218308
3.52538627339527e-5 0.0005333971930667758 0.001171817653812468
3.184030356351286e-5 0.000518253946211189 0.0010950436117127538
2.7618556487141177e-5 0.0004897239268757403 0.0010245119920000434
2.2772850570618175e-5 0.0004424024955369532 0.0009627428371459246
1.7538583051646128e-5 0.00037187751149758697 0.0009117937879636884
1.2180190424260218e-5 0.0002726974489632994 0.0008742067730054259
6.969491550989915e-6 0.0001415229489794001 0.0008515390218235552
2.165645810237038e-6 -1.8001474018092267e-5 0.0008420910453423858
-2.002310793614015e-6 -0.000193989573745057 0.0008403201936744153
-5.3496896725846455e-6 -0.00036810646997764707 0.0008376768091693522
-7.746687515464146e-6 -0.0005189670482650399 0.0008241888135671615
-9.125015822064597e-6 -0.0006260208319872618 0.0007902733632363379
-4.777483354700962e-6 -0.0003331004118081182 0.0003835459647234529

CELL_DATA 50

VECTORS liftinglineloading               float
0.08102712780237198 -0.0854727104306221 0.0311095230281353
0.10366393625736237 -0.12781840562820435 0.04652209207415581
-0.04314476624131203 -0.03418339043855667 0.01244173664599657
0.11848919838666915 -0.07544126361608505 0.02745837345719337
0.12824460864067078 -0.09788626432418823 0.035627685487270355
-0.2579685151576996 -0.20041559636592865 0.07294531166553497
-0.9025906920433046 -0.4135185778141022 0.15050844848155975
-1.8717807531356812 -0.6633966565132141 0.24145662784576416
-2.8725931644439697 -0.8868179321289064 0.32277533411979675
-3.95203161239624 -1.103175401687622 0.40152299404144287
-4.75874662399292 -1.2363548278808594 0.44999635219573975
-5.704925060272217 -1.395899772644043 0.508065938949585
-6.619512557983398 -1.522248387336731 0.5540531277656555
-6.7345685958862305 -1.5073003768920898 0.5486124753952026
-6.91480016708374 -1.4759926795959473 0.537217378616333
-7.3542799949646005 -1.4887884855270386 0.5418747067451477
-7.537553310394287 -1.469795823097229 0.5349619388580322
-8.00108814239502 -1.4800812005996704 0.5387054681777954
-8.243485450744629 -1.4701406955718994 0.5350874662399292
-8.449614524841309 -1.4729609489440918 0.5361139178276062
-8.803621292114258 -1.4712538719177246 0.5354925990104675
-9.097037315368652 -1.425337314605713 0.5187803506851196
-9.155414581298828 -1.3751271963119507 0.5005053877830505
-9.34943675994873 -1.350477933883667 0.49153378605842585
-9.551722526550293 -1.3202251195907593 0.4805226624011993
-9.798230171203613 -1.2962946891784668 0.47181266546249384
-10.104748725891113 -1.269204020500183 0.4619524776935578
-10.321541786193848 -1.2302544116973877 0.4477759897708893
-10.571049690246582 -1.1908798217773438 0.4334448277950287
-10.833731651306152 -1.150221824645996 0.418646514415741
-10.981315612792969 -1.1007194519042969 0.40062910318374634
-11.539458274841309 -1.0780402421951294 0.39237454533576965
-11.583048820495605 -1.0220165252685547 0.3719836175441742
-11.604246139526367 -0.9805645346641542 0.356896311044693
-11.59898567199707 -0.945633053779602 0.3441822826862335
-11.53781509399414 -0.9120070338249208 0.33194342255592346
-11.42850399017334 -0.8920226693153381 0.3246697187423706
-11.271636009216309 -0.8765224814414978 0.3190280795097351
-11.072280883789062 -0.8545868396759033 0.3110441565513611
-10.708643913269043 -0.8319554924964905 0.3028070330619812
-10.418818473815918 -0.8069011569023132 0.29368799924850464
-9.800963401794434 -0.7727924585342407 0.2812734544277191
-8.869621276855469 -0.8689150214195251 0.3162592053413391
-7.47371482849121 -0.9252809882164001 0.3367747366428375
-6.431556701660156 -1.078240990638733 0.39244765043258667
-5.356449127197266 -1.1311230659484863 0.4116951525211334
-4.552939414978027 -1.1667190790176392 0.42465102672576904
-3.6343183517456055 -1.2066147327423096 0.43917185068130493
-2.598057746887207 -1.227113962173462 0.4466329514980316
-1.4855762720108032 -1.2816815376281738 0.4664939343929291