# vtk DataFile Version 4.0
 
ASCII
DATASET UNSTRUCTURED_GRID
POINTS 51 float
0.0029255072586238384 -0.006851235870271921 -0.0032497686333954334
0.0024741466622799635 -0.008889734745025635 -0.006849521771073341
0.0021053405944257975 -0.011212019249796867 -0.010197696276009083
0.0016511689173057675 -0.013614464551210405 -0.013411855325102806
0.001117104198783636 -0.016082976013422012 -0.016500135883688927
0.0006340054678730667 -0.01844002678990364 -0.019565032795071602
0.0003643686359282583 -0.020386774092912674 -0.022779084742069244
0.0003691194870043546 -0.02211618795990944 -0.026030879467725757
0.000572872522752732 -0.02392890676856041 -0.029146840795874596
0.0008646587957628071 -0.025596052408218384 -0.03225911408662796
0.0011637704446911812 -0.02720525674521923 -0.035317108035087585
0.001422586850821972 -0.028872234746813774 -0.03825400769710541
0.0016198125667870045 -0.030526839196681976 -0.0411103181540966
0.0017542806454002857 -0.032093536108732224 -0.04392964765429497
0.001837961026467383 -0.033579081296920776 -0.04670809581875801
0.0018885409226641061 -0.035032276064157486 -0.04941748455166817
0.001923572504892945 -0.03649827092885971 -0.0520317479968071
0.0019564125686883926 -0.03798741102218628 -0.05454491451382637
0.0019946848042309284 -0.03946936875581741 -0.056974492967128754
0.002041437430307269 -0.04090030491352081 -0.059345792979002006
0.00209671794436872 -0.042251359671354294 -0.06167547777295112
0.002158778952434659 -0.04352181404829025 -0.06396396458148956
0.002224987605586648 -0.044729284942150116 -0.06620107591152191
0.002292493125423789 -0.04589435085654259 -0.06837493926286697
0.0023586952593177557 -0.0470324270427227 -0.07047664374113083
0.0024215481244027615 -0.04815254360437393 -0.07250098884105682
0.0024797271471470594 -0.04925774410367012 -0.07444620877504349
0.0025326928589493036 -0.05034581199288368 -0.07631358504295349
0.0025806704070419073 -0.05141014978289605 -0.07810692489147186
0.002624556189402938 -0.05244088172912597 -0.07983193546533585
0.0026656491681933403 -0.05342712998390198 -0.08149489015340805
0.0027052650693804026 -0.054360054433345795 -0.08310090005397797
0.002744461176916957 -0.05523478612303734 -0.08465277403593063
0.002783895470201969 -0.056051149964332574 -0.08615060150623322
0.0028237823862582445 -0.056813519448041916 -0.08759187906980515
0.0028639202937483788 -0.05753006041049957 -0.08897187560796738
0.0029037625063210726 -0.05821163207292557 -0.0902843251824379
0.0029425176326185465 -0.05886975675821304 -0.09152258187532425
0.002979256911203265 -0.05951176583766938 -0.09268240630626678
0.0030130252707749605 -0.06013675406575203 -0.09376432001590729
0.003042937722057104 -0.06073520705103875 -0.09477382153272629
0.003068262478336692 -0.06129105761647225 -0.09572018682956696
0.003088483354076743 -0.06178446114063263 -0.09661486744880676
0.0031033395789563656 -0.06219092011451721 -0.09747201204299927
0.0031128437258303165 -0.06248016655445099 -0.09830909222364426
0.003117278451099992 -0.06262131780385971 -0.09914393723011017
0.0031171750742942095 -0.0625910833477974 -0.09999000281095505
0.003113273996859789 -0.06238129734992981 -0.10085199773311615
0.0031064755748957396 -0.062003690749406815 -0.10172314196825027
0.003097780514508486 -0.0614909753203392 -0.1025845631957054
0.0030882256105542183 -0.06089416891336441 -0.10340680181980133

CELLS 50 150
2 0 1
2 1 2
2 2 3
2 3 4
2 4 5
2 5 6
2 6 7
2 7 8
2 8 9
2 9 10
2 10 11
2 11 12
2 12 13
2 13 14
2 14 15
2 15 16
2 16 17
2 17 18
2 18 19
2 19 20
2 20 21
2 21 22
2 22 23
2 23 24
2 24 25
2 25 26
2 26 27
2 27 28
2 28 29
2 29 30
2 30 31
2 31 32
2 32 33
2 33 34
2 34 35
2 35 36
2 36 37
2 37 38
2 38 39
2 39 40
2 40 41
2 41 42
2 42 43
2 43 44
2 44 45
2 45 46
2 46 47
2 47 48
2 48 49
2 49 50

CELL_TYPES 50
4
4
4
4
4
4
4
4
4
4
4
4
4
4
4
4
4
4
4
4
4
4
4
4
4
4
4
4
4
4
4
4
4
4
4
4
4
4
4
4
4
4
4
4
4
4
4
4
4
4

POINT_DATA 51

SCALARS zone float
LOOKUP_TABLE default
1.0
1.0
1.0
1.0
1.0
1.0
1.0
1.0
1.0
1.0
1.0
1.0
1.0
1.0
1.0
1.0
1.0
1.0
1.0
1.0
1.0
1.0
1.0
1.0
1.0
1.0
1.0
1.0
1.0
1.0
1.0
1.0
1.0
1.0
1.0
1.0
1.0
1.0
1.0
1.0
1.0
1.0
1.0
1.0
1.0
1.0
1.0
1.0
1.0
1.0
1.0

VECTORS normals float
-0.00022568028362002224 -0.0010192496702075005 -0.001799876568838954
-0.00041008330299519 -0.002180391689762473 -0.003473964054137468
-0.0004114889306947589 -0.0023623646702617407 -0.0032811670098453756
-0.0004941182560287416 -0.002435478148981929 -0.003151219803839922
-0.00050858169561252 -0.0024127811193466187 -0.0030765889678150415
-0.00037636776687577367 -0.002151899039745331 -0.003139474429190159
-0.00013244299043435603 -0.0018380804685875776 -0.003232922637835145
0.00010425192886032163 -0.0017710665706545117 -0.0031838782597333193
0.00024776963982731104 -0.001739932456985116 -0.0031141184736043215
0.00029544899007305503 -0.0016381752211600544 -0.0030851331539452076
0.00027896405663341284 -0.0016380916349589823 -0.0029974463395774364
0.00022802104649599642 -0.0016607909929007292 -0.0028966059908270836
0.00016584688273724169 -0.0016106502152979372 -0.0028378197457641363
0.00010907424439210443 -0.0015261207008734345 -0.002798887901008129
6.713013135595247e-5 -0.0014693702105432749 -0.0027439179830253124
4.280570647097193e-5 -0.0014595944667235017 -0.0026618270203471184
3.3935823012143373e-5 -0.0014775666641071439 -0.002563715912401676
3.555617877282202e-5 -0.0014855499612167478 -0.0024713717866688967
4.251242717145942e-5 -0.001456447527743876 -0.0024004389997571707
5.1016584620811045e-5 -0.0013909959234297276 -0.00235049263574183
5.867081563337706e-5 -0.0013107546838000417 -0.0023090848699212074
6.413481605704874e-5 -0.0012389617040753365 -0.00226279953494668
6.685699190711603e-5 -0.00118626793846488 -0.0022054873406887054
6.685387052129954e-5 -0.001151571748778224 -0.002137784380465746
6.452756497310475e-5 -0.0011290964903309941 -0.002063025487586856
6.0515933000715456e-5 -0.0011126580648124218 -0.001984781352803111
5.557234908337704e-5 -0.0010966348927468061 -0.001906297286041081
5.047163722338155e-5 -0.001076202024705708 -0.0018303592223674059
4.5931661588838324e-5 -0.0010475337039679289 -0.0017591759096831083
4.24893842136953e-5 -0.0010084904497489333 -0.0016939826309680939
4.035446181660518e-5 -0.0009595869923941791 -0.0016344820614904167
3.940596798202023e-5 -0.0009038284770213066 -0.0015789392637088895
3.931512765120715e-5 -0.0008455485804006457 -0.0015248522395268083
3.966056101489812e-5 -0.0007893666625022888 -0.0014695539139211178
4.001240085926838e-5 -0.0007394542335532606 -0.0014106358867138624
3.999012187705375e-5 -0.0006990557885728776 -0.0013462250353768468
3.9298683986999094e-5 -0.0006698486395180225 -0.0012753527844324708
3.774720971705392e-5 -0.0006500666495412588 -0.0011990390485152602
3.52538627339527e-5 -0.0006334981299005449 -0.001120869885198772
3.184030356351286e-5 -0.0006117211887612939 -0.0010457078460603952
2.7618556487141177e-5 -0.0005771524738520384 -0.0009779310785233974
2.2772850570618175e-5 -0.0005246275686658919 -0.0009205213864333927
1.7538583051646128e-5 -0.00044993046321906155 -0.0008759128395467997
1.2180190424260218e-5 -0.0003478518920019269 -0.0008471129694953561
6.969491550989915e-6 -0.00021520092559512705 -0.0008359641069546341
2.165645810237038e-6 -5.5460095609305426e-5 -0.0008404555264860392
-2.002310793614015e-6 0.00012001264985883607 -0.0008540298440493644
-5.3496896725846455e-6 0.0002936973760370165 -0.0008665717905387282
-7.746687515464146e-6 0.00044515944318845874 -0.0008662834879942238
-9.125015822064597e-6 0.0005547617329284549 -0.0008418274228461087
-4.777483354700962e-6 0.0002984046295750886 -0.00041111806058324873

CELL_DATA 50

VECTORS liftinglineloading               float
0.07841014117002487 0.08075278997421265 -0.03765564411878586
0.09556028991937637 0.11588224768638612 -0.05403678119182587
-0.040189363062381744 0.03447438031435013 -0.01607566885650158
0.12101782113313675 0.07428683340549469 -0.034640517085790634
0.12155217677354811 0.09662630409002304 -0.04505758360028267
-0.26838919520378113 0.1960144340991974 -0.09140302985906601
-0.9092208743095398 0.40056273341178894 -0.1867854744195938
-1.8691365718841553 0.6390595436096191 -0.2979983687400818
-2.8570127487182617 0.852157950401306 -0.39736777544021606
-3.870113372802735 1.0506212711334229 -0.48991274833679205
-4.672347068786621 1.180138349533081 -0.5503075122833252
-5.623815536499023 1.3345469236373901 -0.6223094463348389
-6.54857301712036 1.4583929777145386 -0.6800598502159119
-6.684611797332764 1.447397232055664 -0.6749323606491089
-6.856637001037598 1.4165698289871216 -0.6605573296546936
-7.333823204040528 1.4331525564193726 -0.6682900190353394
-7.514971256256104 1.4148181676864624 -0.6597405672073364
-7.974438667297363 1.424733281135559 -0.6643640398979187
-8.207077026367188 1.4146990776062012 -0.6596850156784058
-8.511443138122559 1.4226939678192139 -0.6634130477905273
-8.895211219787598 1.4215843677520752 -0.662895679473877
-9.183587074279785 1.3769876956939697 -0.6420998573303223
-9.233386993408203 1.3275949954986572 -0.6190677285194397
-9.425926208496094 1.3033196926116943 -0.6077479124069214
-9.632282257080078 1.2732962369918823 -0.5937477946281433
-9.882185935974121 1.249475121498108 -0.5826398134231567
-10.166282653808594 1.221861481666565 -0.5697633624076843
-10.405573844909668 1.1842848062515259 -0.5522410869598389
-10.679712295532227 1.1458958387374878 -0.5343400239944458
-10.971773147583008 1.1058188676834106 -0.5156518220901489
-11.081023216247559 1.058427333831787 -0.49355277419090265
-11.625948905944824 1.035965085029602 -0.48307844996452326
-11.655007362365723 0.9817523360252379 -0.45779862999916077
-11.671760559082031 0.9421504735946654 -0.439331978559494
-11.664139747619629 0.9088072180747986 -0.4237837493419647
-11.602204322814941 0.8767308592796326 -0.40882632136344904
-11.49238109588623 0.8578476309776306 -0.40002089738845825
-11.334697723388672 0.8431970477104188 -0.3931892216205597
-11.133923530578613 0.822251558303833 -0.38342219591140747
-10.764983177185059 0.8007649183273315 -0.37340280413627625
-10.469826698303223 0.7768855094909668 -0.3622676730155945
-9.844452857971191 0.7447346448898315 -0.3472754657268524
-8.902022361755371 0.8379745483398438 -0.39075395464897156
-7.621098995208739 0.8935579657554626 -0.416672945022583
-6.554001331329346 1.044927954673767 -0.48725786805152893
-5.458406448364258 1.0974732637405396 -0.5117601752281189
-4.639203071594238 1.1322187185287476 -0.5279622077941895
-3.690073251724243 1.1693787574768066 -0.5452902913093567
-2.591782569885254 1.182411551475525 -0.5513675212860107
-1.482630968093872 1.235242247581482 -0.5760029554367065