# vtk DataFile Version 4.0
 
ASCII
DATASET UNSTRUCTURED_GRID
POINTS 51 float
0.0029255072586238384 -0.006240000016987324 0.004308459814637899
0.0024741466622799635 -0.01037672720849514 0.004273975733667612
0.0021053405944257975 -0.014437473379075527 0.0046110451221466064
0.0016511689173057675 -0.018422240391373634 0.005084543954581022
0.001117104198783636 -0.022331025451421738 0.005678197368979454
0.0006340054678730667 -0.026163829490542415 0.006187014747411013
0.0003643686359282583 -0.029920652508735657 0.006265921518206596
0.0003691194870043546 -0.03360149636864662 0.006137740798294544
0.000572872522752732 -0.03720635920763016 0.006149620283395052
0.0008646587957628071 -0.040735241025686264 0.006037273444235325
0.0011637704446911812 -0.04418814182281494 0.005901889875531197
0.001422586850821972 -0.04756506159901619 0.005877085030078888
0.0016198125667870045 -0.05086600035429001 0.00588185852393508
0.0017542806454002857 -0.054090958088636405 0.005828993394970894
0.001837961026467383 -0.05723993852734566 0.005726289004087448
0.0018885409226641061 -0.06031293421983719 0.005630099214613438
0.001923572504892945 -0.06330995261669159 0.005592553876340389
0.0019564125686883926 -0.06623098999261856 0.005625604186207056
0.0019946848042309284 -0.0690760463476181 0.0056942300871014595
0.002041437430307269 -0.07184511423110962 0.005747805815190077
0.00209671794436872 -0.0745382085442543 0.005753013305366039
0.002158778952434659 -0.07715532183647156 0.00570901483297348
0.002224987605586648 -0.07969645410776138 0.005636158399283886
0.002292493125423789 -0.08216160535812378 0.0055582039058208466
0.0023586952593177557 -0.08455078303813934 0.0054929545149207115
0.0024215481244027615 -0.08686397224664688 0.005450830794870853
0.0024797271471470594 -0.08910118043422699 0.005435353610664606
0.0025326928589493036 -0.09126240760087967 0.005443960893899202
0.0025806704070419073 -0.09334765374660492 0.005469031166285276
0.002624556189402938 -0.09535692632198334 0.005499166436493397
0.0026656491681933403 -0.09729021042585373 0.00552180502563715
0.0027052650693804026 -0.09914752095937729 0.005526737775653601
0.002744461176916957 -0.10092884302139282 0.005508342757821083
0.002783895470201969 -0.10263418406248094 0.00546641880646348
0.0028237823862582445 -0.10426355153322218 0.005406011827290058
0.0028639202937483788 -0.10581693798303606 0.005336555186659098
0.0029037625063210726 -0.10729433596134187 0.0052705868147313595
0.0029425176326185465 -0.10869576036930083 0.005221414379775524
0.002979256911203265 -0.1100212037563324 0.005197496619075537
0.0030130252707749605 -0.11127065867185593 0.005197795107960701
0.003042937722057104 -0.11244414001703264 0.005211320705711842
0.003068262478336692 -0.11354164034128189 0.005219521466642618
0.003088483354076743 -0.11456315964460372 0.005199480801820755
0.0031033395789563656 -0.11550869792699814 0.005122911185026169
0.0031128437258303165 -0.11637825518846512 0.004954865202307701
0.003117278451099992 -0.11717183142900467 0.004659685771912336
0.0031171750742942095 -0.11788942664861679 0.00421046931296587
0.003113273996859789 -0.11853104084730147 0.0035977880470454693
0.0031064755748957396 -0.11909667402505875 0.0028351987712085247
0.003097780514508486 -0.11958632618188858 0.001960465917363763
0.0030882256105542183 -0.11999999731779097 0.0010324957547709346

CELLS 50 150
2 0 1
2 1 2
2 2 3
2 3 4
2 4 5
2 5 6
2 6 7
2 7 8
2 8 9
2 9 10
2 10 11
2 11 12
2 12 13
2 13 14
2 14 15
2 15 16
2 16 17
2 17 18
2 18 19
2 19 20
2 20 21
2 21 22
2 22 23
2 23 24
2 24 25
2 25 26
2 26 27
2 27 28
2 28 29
2 29 30
2 30 31
2 31 32
2 32 33
2 33 34
2 34 35
2 35 36
2 36 37
2 37 38
2 38 39
2 39 40
2 40 41
2 41 42
2 42 43
2 43 44
2 44 45
2 45 46
2 46 47
2 47 48
2 48 49
2 49 50

CELL_TYPES 50
4
4
4
4
4
4
4
4
4
4
4
4
4
4
4
4
4
4
4
4
4
4
4
4
4
4
4
4
4
4
4
4
4
4
4
4
4
4
4
4
4
4
4
4
4
4
4
4
4
4

POINT_DATA 51

SCALARS zone float
LOOKUP_TABLE default
1.0
1.0
1.0
1.0
1.0
1.0
1.0
1.0
1.0
1.0
1.0
1.0
1.0
1.0
1.0
1.0
1.0
1.0
1.0
1.0
1.0
1.0
1.0
1.0
1.0
1.0
1.0
1.0
1.0
1.0
1.0
1.0
1.0
1.0
1.0
1.0
1.0
1.0
1.0
1.0
1.0
1.0
1.0
1.0
1.0
1.0
1.0
1.0
1.0
1.0
1.0

VECTORS normals float
-0.00022568028362002224 -0.002068363595753908 -1.7242222384084016e-5
-0.00041008330299519 -0.004098737146705389 0.0001512926392024383
-0.0004114889306947589 -0.00402275612577796 0.0004052843141835183
-0.0004941182560287416 -0.003946775570511818 0.0005335760652087629
-0.00050858169561252 -0.0038707947824150324 0.0005512352799996734
-0.00037636776687577367 -0.003794813994318247 0.00029386201640591025
-0.00013244299043435603 -0.003718833439052105 -2.4636945454403758e-5
0.00010425192886032163 -0.0036428526509553194 -5.8150460972683504e-5
0.00024776963982731104 -0.003566872095689177 -5.023361154599115e-5
0.00029544899007305503 -0.0034908913075923915 -0.00012386527669150382
0.00027896405663341284 -0.003414910519495607 -8.009421435417607e-5
0.00022802104649599642 -0.003338929964229465 -1.0015743100666441e-5
0.00016584688273724169 -0.003262949176132679 -2.4045917598414235e-5
0.00010907424439210443 -0.0031869683880358934 -7.778471626807004e-5
6.713013135595247e-5 -0.0031109878327697515 -9.944705379894003e-5
4.280570647097193e-5 -0.003035007044672966 -6.68676511850208e-5
3.3935823012143373e-5 -0.0029590262565761805 -2.247636075480841e-6
3.555617877282202e-5 -0.0028830457013100386 5.0838167226174846e-5
4.251242717145942e-5 -0.002807064913213253 6.110099639045075e-5
5.1016584620811045e-5 -0.0027310841251164675 2.9391570933512412e-5
5.867081563337706e-5 -0.0026551035698503256 -1.9395538402022794e-5
6.413481605704874e-5 -0.00257912278175354 -5.8427471230970696e-5
6.685699190711603e-5 -0.002503142226487398 -7.54054999561049e-5
6.685387052129954e-5 -0.0024271614383906126 -7.160175300668925e-5
6.452756497310475e-5 -0.002351180650293827 -5.368652637116611e-5
6.0515933000715456e-5 -0.002275200095027685 -2.880051033571362e-5
5.557234908337704e-5 -0.0021992193069308996 -3.4349538964306703e-6
5.047163722338155e-5 -0.002123238518834114 1.6838637748151086e-5
4.5931661588838324e-5 -0.002047257963567972 2.7602796762948856e-5
4.24893842136953e-5 -0.0019712771754711866 2.6387031539343297e-5
4.035446181660518e-5 -0.0018952965037897231 1.3785658666165546e-5
3.940596798202023e-5 -0.0018193157156929374 -6.73123577143997e-6
3.931512765120715e-5 -0.0017433350440114737 -3.015958463947754e-5
3.966056101489812e-5 -0.00166735437233001 -5.116535612614826e-5
4.001240085926838e-5 -0.0015913737006485462 -6.493178807431832e-5
3.999012187705375e-5 -0.0015153929125517607 -6.771242624381557e-5
3.9298683986999094e-5 -0.001439412240870297 -5.757043982157484e-5
3.774720971705392e-5 -0.0013634315691888332 -3.654529064078815e-5
3.52538627339527e-5 -0.0012874507810920477 -1.1809476745838765e-5
3.184030356351286e-5 -0.001211470109410584 6.912170647410676e-6
2.7618556487141177e-5 -0.0011354894377291203 1.0863128409255296e-5
2.2772850570618175e-5 -0.0010595087660476565 -5.91989100939827e-6
1.7538583051646128e-5 -0.000983527977950871 -4.830521720577963e-5
1.2180190424260218e-5 -0.0009075473062694074 -0.00012230791617184877
6.969491550989915e-6 -0.0008315665763802826 -0.00023161257558967918
2.165645810237038e-6 -0.0007555859046988189 -0.00037219791556708515
-2.002310793614015e-6 -0.0006796051748096943 -0.0005309489206410944
-5.3496896725846455e-6 -0.0006036245031282306 -0.0006876352708786726
-7.746687515464146e-6 -0.0005276437732391059 -0.0008186611230485141
-9.125015822064597e-6 -0.0004516630724538117 -0.0009013515082187951
-4.777483354700962e-6 -0.00020683636830653995 -0.0004639850230887532

CELL_DATA 50

VECTORS liftinglineloading               float
0.05703914910554886 0.006363925989717245 -0.07274000346660614
0.025915278121829033 0.004438219591975212 -0.050729081034660346
0.0121932253241539 0.004615097306668758 -0.05275079980492592
0.1302405148744583 0.008495560847222805 -0.09710470587015152
0.017628580331802368 0.012624473311007023 -0.14429838955402374
-0.49572679400444036 0.02444683387875557 -0.2794286012649536
-1.2222789525985718 0.04590421915054321 -0.524687647819519
-2.208451986312866 0.06748988479375839 -0.7714129090309143
-3.2341468334198 0.08758466690778732 -1.001097321510315
-4.2900519371032715 0.10631967335939407 -1.215239405632019
-5.1243510246276855 0.11831169575452805 -1.3523088693618774
-6.082281112670898 0.13325124979019165 -1.5230687856674194
-6.9918317794799805 0.14452409744262695 -1.6519180536270142
-7.019526958465576 0.1416030377149582 -1.6185301542282104
-7.237111568450929 0.13904036581516266 -1.5892387628555298
-7.664295673370361 0.13982737064361572 -1.5982340574264526
-7.789376735687256 0.13720887899398804 -1.5683046579360962
-8.177942276000977 0.13715636730194092 -1.5677043199539185
-8.376811981201172 0.13595376908779144 -1.5539586544036865
-8.718592643737793 0.13703806698322296 -1.5663522481918335
-9.079543113708496 0.13657920062541962 -1.5611073970794678
-9.335390090942383 0.13216571509838104 -1.510661005973816
-9.336196899414062 0.12719249725341797 -1.4538168907165527
-9.478452682495117 0.1246686801314354 -1.4249695539474487
-9.634441375732422 0.12166526168584822 -1.3906402587890625
-9.851152420043945 0.11938154697418213 -1.3645373582839966
-10.16431999206543 0.11677464842796326 -1.334740400314331
-10.4094877243042 0.1132226213812828 -1.2941404581069946
-10.691665649414062 0.10956912487745285 -1.2523808479309082
-10.995718002319336 0.1057305559515953 -1.2085058689117432
-11.114999771118164 0.10117124021053314 -1.1563925743103027
-11.70410442352295 0.09885025024414062 -1.1298635005950928
-11.755678176879883 0.09346655011177063 -1.06832754611969
-11.790488243103027 0.08965224772691727 -1.0247299671173096
-11.801464080810547 0.0864543467760086 -0.9881777167320251
-11.760021209716797 0.08339866250753403 -0.9532511234283447
-11.615303993225098 0.08172239363193512 -0.9340912103652955
-11.473814964294434 0.08034588396549225 -0.9183576107025145
-11.28579044342041 0.07835595309734344 -0.895612597465515
-10.91848373413086 0.07635896652936935 -0.8727869391441346
-10.624581336975098 0.07412098348140717 -0.8472067713737489
-9.993521690368652 0.07126592099666595 -0.8145731687545775
-9.035567283630371 0.08034440875053406 -0.9183408021926881
-7.725804805755615 0.08584360778331757 -0.9811969399452211
-6.648770332336425 0.10068381577730179 -1.1508212089538574
-5.609158992767334 0.10626163333654405 -1.214576005935669
-4.772611141204834 0.10968537628650665 -1.2537095546722412
-3.8207876682281494 0.11350749433040619 -1.2973966598510742
-2.9112958908081055 0.11568094044923784 -1.3222392797470093
-1.5732219219207764 0.12074204534292221 -1.3800878524780273