# vtk DataFile Version 4.0
 
ASCII
DATASET UNSTRUCTURED_GRID
POINTS 51 float
0.0029255072586238384 0.004308459814637899 0.006240000016987324
0.0024741466622799635 0.004273975733667612 0.01037672720849514
0.0021053405944257975 0.0046110451221466064 0.014437473379075527
0.0016511689173057675 0.005084543954581022 0.018422240391373634
0.001117104198783636 0.005678197368979454 0.022331025451421738
0.0006340054678730667 0.006187014747411013 0.026163829490542415
0.0003643686359282583 0.006265921518206596 0.029920652508735657
0.0003691194870043546 0.006137740798294544 0.03360149636864662
0.000572872522752732 0.006149620283395052 0.03720635920763016
0.0008646587957628071 0.006037273444235325 0.040735241025686264
0.0011637704446911812 0.005901889875531197 0.04418814182281494
0.001422586850821972 0.005877085030078888 0.04756506159901619
0.0016198125667870045 0.00588185852393508 0.05086600035429001
0.0017542806454002857 0.005828993394970894 0.054090958088636405
0.001837961026467383 0.005726289004087448 0.05723993852734566
0.0018885409226641061 0.005630099214613438 0.06031293421983719
0.001923572504892945 0.005592553876340389 0.06330995261669159
0.0019564125686883926 0.005625604186207056 0.06623098999261856
0.0019946848042309284 0.0056942300871014595 0.0690760463476181
0.002041437430307269 0.005747805815190077 0.07184511423110962
0.00209671794436872 0.005753013305366039 0.0745382085442543
0.002158778952434659 0.00570901483297348 0.07715532183647156
0.002224987605586648 0.005636158399283886 0.07969645410776138
0.002292493125423789 0.0055582039058208466 0.08216160535812378
0.0023586952593177557 0.0054929545149207115 0.08455078303813934
0.0024215481244027615 0.005450830794870853 0.08686397224664688
0.0024797271471470594 0.005435353610664606 0.08910118043422699
0.0025326928589493036 0.005443960893899202 0.09126240760087967
0.0025806704070419073 0.005469031166285276 0.09334765374660492
0.002624556189402938 0.005499166436493397 0.09535692632198334
0.0026656491681933403 0.00552180502563715 0.09729021042585373
0.0027052650693804026 0.005526737775653601 0.09914752095937729
0.002744461176916957 0.005508342757821083 0.10092884302139282
0.002783895470201969 0.00546641880646348 0.10263418406248094
0.0028237823862582445 0.005406011827290058 0.10426355153322218
0.0028639202937483788 0.005336555186659098 0.10581693798303606
0.0029037625063210726 0.0052705868147313595 0.10729433596134187
0.0029425176326185465 0.005221414379775524 0.10869576036930083
0.002979256911203265 0.005197496619075537 0.1100212037563324
0.0030130252707749605 0.005197795107960701 0.11127065867185593
0.003042937722057104 0.005211320705711842 0.11244414001703264
0.003068262478336692 0.005219521466642618 0.11354164034128189
0.003088483354076743 0.005199480801820755 0.11456315964460372
0.0031033395789563656 0.005122911185026169 0.11550869792699814
0.0031128437258303165 0.004954865202307701 0.11637825518846512
0.003117278451099992 0.004659685771912336 0.11717183142900467
0.0031171750742942095 0.00421046931296587 0.11788942664861679
0.003113273996859789 0.0035977880470454693 0.11853104084730147
0.0031064755748957396 0.0028351987712085247 0.11909667402505875
0.003097780514508486 0.001960465917363763 0.11958632618188858
0.0030882256105542183 0.0010324957547709346 0.11999999731779097

CELLS 50 150
2 0 1
2 1 2
2 2 3
2 3 4
2 4 5
2 5 6
2 6 7
2 7 8
2 8 9
2 9 10
2 10 11
2 11 12
2 12 13
2 13 14
2 14 15
2 15 16
2 16 17
2 17 18
2 18 19
2 19 20
2 20 21
2 21 22
2 22 23
2 23 24
2 24 25
2 25 26
2 26 27
2 27 28
2 28 29
2 29 30
2 30 31
2 31 32
2 32 33
2 33 34
2 34 35
2 35 36
2 36 37
2 37 38
2 38 39
2 39 40
2 40 41
2 41 42
2 42 43
2 43 44
2 44 45
2 45 46
2 46 47
2 47 48
2 48 49
2 49 50

CELL_TYPES 50
4
4
4
4
4
4
4
4
4
4
4
4
4
4
4
4
4
4
4
4
4
4
4
4
4
4
4
4
4
4
4
4
4
4
4
4
4
4
4
4
4
4
4
4
4
4
4
4
4
4

POINT_DATA 51

SCALARS zone float
LOOKUP_TABLE default
1.0
1.0
1.0
1.0
1.0
1.0
1.0
1.0
1.0
1.0
1.0
1.0
1.0
1.0
1.0
1.0
1.0
1.0
1.0
1.0
1.0
1.0
1.0
1.0
1.0
1.0
1.0
1.0
1.0
1.0
1.0
1.0
1.0
1.0
1.0
1.0
1.0
1.0
1.0
1.0
1.0
1.0
1.0
1.0
1.0
1.0
1.0
1.0
1.0
1.0
1.0

VECTORS normals float
-0.00022568028362002224 -1.7242222384084016e-5 0.002068363595753908
-0.00041008330299519 0.0001512926392024383 0.004098737146705389
-0.0004114889306947589 0.0004052843141835183 0.00402275612577796
-0.0004941182560287416 0.0005335760652087629 0.003946775570511818
-0.00050858169561252 0.0005512352799996734 0.0038707947824150324
-0.00037636776687577367 0.00029386201640591025 0.003794813994318247
-0.00013244299043435603 -2.4636945454403758e-5 0.003718833439052105
0.00010425192886032163 -5.8150460972683504e-5 0.0036428526509553194
0.00024776963982731104 -5.023361154599115e-5 0.003566872095689177
0.00029544899007305503 -0.00012386527669150382 0.0034908913075923915
0.00027896405663341284 -8.009421435417607e-5 0.003414910519495607
0.00022802104649599642 -1.0015743100666441e-5 0.003338929964229465
0.00016584688273724169 -2.4045917598414235e-5 0.003262949176132679
0.00010907424439210443 -7.778471626807004e-5 0.0031869683880358934
6.713013135595247e-5 -9.944705379894003e-5 0.0031109878327697515
4.280570647097193e-5 -6.68676511850208e-5 0.003035007044672966
3.3935823012143373e-5 -2.247636075480841e-6 0.0029590262565761805
3.555617877282202e-5 5.0838167226174846e-5 0.0028830457013100386
4.251242717145942e-5 6.110099639045075e-5 0.002807064913213253
5.1016584620811045e-5 2.9391570933512412e-5 0.0027310841251164675
5.867081563337706e-5 -1.9395538402022794e-5 0.0026551035698503256
6.413481605704874e-5 -5.8427471230970696e-5 0.00257912278175354
6.685699190711603e-5 -7.54054999561049e-5 0.002503142226487398
6.685387052129954e-5 -7.160175300668925e-5 0.0024271614383906126
6.452756497310475e-5 -5.368652637116611e-5 0.002351180650293827
6.0515933000715456e-5 -2.880051033571362e-5 0.002275200095027685
5.557234908337704e-5 -3.4349538964306703e-6 0.0021992193069308996
5.047163722338155e-5 1.6838637748151086e-5 0.002123238518834114
4.5931661588838324e-5 2.7602796762948856e-5 0.002047257963567972
4.24893842136953e-5 2.6387031539343297e-5 0.0019712771754711866
4.035446181660518e-5 1.3785658666165546e-5 0.0018952965037897231
3.940596798202023e-5 -6.73123577143997e-6 0.0018193157156929374
3.931512765120715e-5 -3.015958463947754e-5 0.0017433350440114737
3.966056101489812e-5 -5.116535612614826e-5 0.00166735437233001
4.001240085926838e-5 -6.493178807431832e-5 0.0015913737006485462
3.999012187705375e-5 -6.771242624381557e-5 0.0015153929125517607
3.9298683986999094e-5 -5.757043982157484e-5 0.001439412240870297
3.774720971705392e-5 -3.654529064078815e-5 0.0013634315691888332
3.52538627339527e-5 -1.1809476745838765e-5 0.0012874507810920477
3.184030356351286e-5 6.912170647410676e-6 0.001211470109410584
2.7618556487141177e-5 1.0863128409255296e-5 0.0011354894377291203
2.2772850570618175e-5 -5.91989100939827e-6 0.0010595087660476565
1.7538583051646128e-5 -4.830521720577963e-5 0.000983527977950871
1.2180190424260218e-5 -0.00012230791617184877 0.0009075473062694074
6.969491550989915e-6 -0.00023161257558967918 0.0008315665763802826
2.165645810237038e-6 -0.00037219791556708515 0.0007555859046988189
-2.002310793614015e-6 -0.0005309489206410944 0.0006796051748096943
-5.3496896725846455e-6 -0.0006876352708786726 0.0006036245031282306
-7.746687515464146e-6 -0.0008186611230485141 0.0005276437732391059
-9.125015822064597e-6 -0.0009013515082187951 0.0004516630724538117
-4.777483354700962e-6 -0.0004639850230887532 0.00020683636830653995

CELL_DATA 50

VECTORS liftinglineloading               float
0.03628191351890564 -0.05458880960941315 -0.0047759017907083035
-0.0188826285302639 -0.0007428667158819735 -6.499241862911731e-5
0.05555498227477073 -0.07072237879037857 -0.0061874063685536385
0.08111102879047394 -0.11190567165613174 -0.009790477342903614
-0.09357686340808868 -0.17987559735774994 -0.015737075358629227
-0.6455060839653015 -0.31724733114242554 -0.027755545452237126
-1.3550721406936646 -0.5505908131599426 -0.04817045480012894
-2.275214910507202 -0.7773489356040955 -0.06800922006368637
-3.3282065391540523 -1.0098941326141357 -0.08835428208112717
-4.34821081161499 -1.2174389362335205 -0.10651209950447083
-5.166745185852051 -1.3528861999511719 -0.11836220324039459
-6.131644248962402 -1.5261547565460205 -0.13352122902870178
-7.076789379119873 -1.6603616476058962 -0.14526282250881195
-7.144108772277831 -1.6312032938003538 -0.1427117884159088
-7.449682235717773 -1.6123048067092896 -0.14105840027332306
-7.948933124542235 -1.6274039745330808 -0.14237940311431885
-8.064003944396973 -1.5939351320266724 -0.139451265335083
-8.513598442077637 -1.5922778844833374 -0.13930626213550568
-8.818061828613281 -1.5826685428619385 -0.13846555352210999
-9.005499839782715 -1.588010311126709 -0.13893289864063263
-9.377209663391113 -1.5801537036895752 -0.13824553787708282
-9.63625717163086 -1.52889084815979 -0.13376061618328094
-9.619451522827148 -1.4693974256515503 -0.12855561077594757
-9.738264083862305 -1.4378082752227783 -0.12579192221164703
-9.864617347717285 -1.4001755714416504 -0.1224994882941246
-10.05938720703125 -1.3717423677444458 -0.12001190334558486
-10.31558609008789 -1.3402104377746582 -0.11725322157144548
-10.518478393554688 -1.2993559837341309 -0.11367891728878021
-10.785627365112305 -1.2567392587661743 -0.1099504381418228
-11.077752113342285 -1.2120187282562256 -0.10603789985179901
-11.1853666305542 -1.1590906381607056 -0.10140728950500488
-11.730283737182617 -1.13314950466156 -0.09913773834705353
-11.781697273254395 -1.0709424018859863 -0.09369532018899918
-11.809698104858398 -1.02703058719635 -0.08985353261232376
-11.812533378601074 -0.9902915954589844 -0.08663928508758545
-11.760660171508789 -0.9552966952323914 -0.08357763290405273
-11.658801078796387 -0.9351562261581422 -0.08181557059288025
-11.50688362121582 -0.9195666909217834 -0.08045165985822678
-11.287683486938477 -0.8963117003440857 -0.07841711491346359
-10.905680656433105 -0.873657464981079 -0.07643512636423111
-10.596125602722168 -0.8482513427734375 -0.07421237975358963
-9.950215339660645 -0.8152492642402649 -0.07132507115602493
-8.981800079345703 -0.9186016917228698 -0.08036723732948303
-7.6615495681762695 -0.9805248379707338 -0.08578480780124664
-6.577625274658204 -1.1477031707763672 -0.10041102021932602
-5.468307971954346 -1.2052116394042969 -0.1054423525929451
-4.638118743896484 -1.2426795959472656 -0.10872037708759306
-3.6964843273162846 -1.2845607995986938 -0.11238451302051544
-2.8166589736938477 -1.3092230558395386 -0.1145421788096428
-1.5145117044448853 -1.365493655204773 -0.11946521699428558