# vtk DataFile Version 4.0
 
ASCII
DATASET UNSTRUCTURED_GRID
POINTS 51 float
0.0029255072586238384 0.0053265695460140705 0.005397044122219086
0.0024741466622799635 0.006010944023728371 0.009476913139224052
0.0021053405944257975 0.007048034109175205 0.013417436741292477
0.0016511689173057675 0.00820628646761179 0.017259443178772926
0.001117104198783636 0.009469674900174141 0.02100575715303421
0.0006340054678730667 0.010636321268975735 0.024691978469491005
0.0003643686359282583 0.011366395279765129 0.028378024697303772
0.0003691194870043546 0.011879333294928074 0.032025206834077835
0.000572872522752732 0.012517009861767292 0.035573240369558334
0.0008646587957628071 0.013019153848290443 0.03906801715493202
0.0011637704446911812 0.013485416769981383 0.04249197244644165
0.001422586850821972 0.014047385193407534 0.0458218976855278
0.0016198125667870045 0.014625288546085356 0.04907185956835747
0.0017542806454002857 0.015133234672248363 0.05225700139999389
0.001837961026467383 0.015578904189169407 0.055375974625349045
0.0018885409226641061 0.016017796471714973 0.05841898918151856
0.001923572504892945 0.016501247882843018 0.06137699633836746
0.0019564125686883926 0.017041029408574104 0.06424791365861893
0.0019946848042309284 0.017602650448679924 0.06703782826662064
0.002041437430307269 0.01813625730574131 0.06975553184747696
0.00209671794436872 0.01860903576016426 0.07240680605173111
0.002158778952434659 0.019020164385437965 0.07499179989099503
0.002224987605586648 0.019389675930142403 0.07750698179006577
0.002292493125423789 0.01974097639322281 0.07994821667671204
0.0023586952593177557 0.020091593265533447 0.08231242001056671
0.0024215481244027615 0.02045178972184658 0.08459778130054474
0.0024797271471470594 0.020825035870075226 0.08680369704961777
0.0025326928589493036 0.021208805963397026 0.08893059194087982
0.0025806704070419073 0.02159559540450573 0.09097980707883835
0.002624556189402938 0.02197417803108692 0.09295331686735153
0.0026656491681933403 0.02233218401670456 0.09485330432653427
0.0027052650693804026 0.022659560665488243 0.09668153524398804
0.002744461176916957 0.02295076847076416 0.09843899309635162
0.002783895470201969 0.02320561185479164 0.10012570768594742
0.0028237823862582445 0.023429058492183685 0.10174080729484557
0.0028639202937483788 0.023630399256944656 0.10328265279531479
0.0029037625063210726 0.023821981623768806 0.10474906861782075
0.0029425176326185465 0.024016909301280975 0.10613773763179779
0.002979256911203265 0.024223515763878822 0.10744719207286835
0.0030130252707749605 0.02444077655673027 0.10867762565612793
0.003042937722057104 0.024657869711518288 0.10983092337846756
0.003068262478336692 0.024856524541974068 0.1109103262424469
0.003088483354076743 0.025014173239469528 0.11191980540752411
0.0031033395789563656 0.025102956220507622 0.11286427825689316
0.0031128437258303165 0.025088461115956306 0.11374980211257935
0.003117278451099992 0.024935569614171982 0.11458258330821992
0.0031171750742942095 0.024617787450551987 0.11536727845668794
0.003113273996859789 0.024125829339027405 0.1161055341362953
0.0031064755748957396 0.023473046720027924 0.11679500341415405
0.003097780514508486 0.02269662916660309 0.11742910742759703
0.0030882256105542183 0.021854590624570847 0.11799763888120651

CELLS 50 150
2 0 1
2 1 2
2 2 3
2 3 4
2 4 5
2 5 6
2 6 7
2 7 8
2 8 9
2 9 10
2 10 11
2 11 12
2 12 13
2 13 14
2 14 15
2 15 16
2 16 17
2 17 18
2 18 19
2 19 20
2 20 21
2 21 22
2 22 23
2 23 24
2 24 25
2 25 26
2 26 27
2 27 28
2 28 29
2 29 30
2 30 31
2 31 32
2 32 33
2 33 34
2 34 35
2 35 36
2 36 37
2 37 38
2 38 39
2 39 40
2 40 41
2 41 42
2 42 43
2 43 44
2 44 45
2 45 46
2 46 47
2 47 48
2 48 49
2 49 50

CELL_TYPES 50
4
4
4
4
4
4
4
4
4
4
4
4
4
4
4
4
4
4
4
4
4
4
4
4
4
4
4
4
4
4
4
4
4
4
4
4
4
4
4
4
4
4
4
4
4
4
4
4
4
4

POINT_DATA 51

SCALARS zone float
LOOKUP_TABLE default
1.0
1.0
1.0
1.0
1.0
1.0
1.0
1.0
1.0
1.0
1.0
1.0
1.0
1.0
1.0
1.0
1.0
1.0
1.0
1.0
1.0
1.0
1.0
1.0
1.0
1.0
1.0
1.0
1.0
1.0
1.0
1.0
1.0
1.0
1.0
1.0
1.0
1.0
1.0
1.0
1.0
1.0
1.0
1.0
1.0
1.0
1.0
1.0
1.0
1.0
1.0

VECTORS normals float
-0.00022568028362002224 0.000342187297064811 0.002039934741333127
-0.00041008330299519 0.0008607323397882283 0.0040101963095366955
-0.0004114889306947589 0.0010976714547723532 0.0038912645541131496
-0.0004941182560287416 0.0012108201626688242 0.0037941606715321545
-0.00050858169561252 0.0012150172842666507 0.003716267645359039
-0.00037636776687577367 0.0009483601315878332 0.003686133772134781
-0.00013244299043435603 0.0006215060129761696 0.003666614182293415
0.00010425192886032163 0.0005753076984547079 0.0035976073704659934
0.00024776963982731104 0.0005699103930965066 0.0035214060917496677
0.00029544899007305503 0.00048420342500321567 0.003459365805611014
0.00027896405663341284 0.0005141156143508852 0.003376938635483384
0.00022802104649599642 0.0005699354805983603 0.003289943328127265
0.00016584688273724169 0.0005429245647974312 0.0032175532542169094
0.00010907424439210443 0.00047680828720331187 0.003152058459818363
6.713013135595247e-5 0.00044228113256394863 0.0030809936579316854
4.280570647097193e-5 0.00046117167221382255 0.003000509925186634
3.3935823012143373e-5 0.000511616060975939 0.00291446247138083
3.555617877282202e-5 0.000550701457541436 0.002830417826771736
4.251242717145942e-5 0.0005476144724525511 0.0027538093272596598
5.1016584620811045e-5 0.0005031928303651512 0.0026844891253858805
5.867081563337706e-5 0.00044195301597937947 0.0026181344874203205
6.413481605704874e-5 0.0003903201431967318 0.0025500860065221786
6.685699190711603e-5 0.000360406149411574 0.0024782076943665743
6.685387052129954e-5 0.000350958202034235 0.0024027209728956223
6.452756497310475e-5 0.00035540733369998634 0.0023247834760695696
6.0515933000715456e-5 0.0003667213604785502 0.002245635725557804
5.557234908337704e-5 0.00037850765511393547 0.0021664046216756105
5.047163722338155e-5 0.00038527933065779507 0.0020880578085780144
4.5931661588838324e-5 0.00038268606294877827 0.0020113622304052114
4.24893842136953e-5 0.00036829482996836305 0.0019367469940334558
4.035446181660518e-5 0.0003426909970585257 0.001864108839072287
3.940596798202023e-5 0.0003092919068876654 0.001792845199815929
3.931512765120715e-5 0.0002730255655478686 0.0017220870358869431
3.966056101489812e-5 0.00023914501070976255 0.0016509082634001972
4.001240085926838e-5 0.00021239380293991414 0.0015784724382683635
3.999012187705375e-5 0.00019646150758489966 0.001504128915257752
3.9298683986999094e-5 0.00019325550238136202 0.0014275413705036044
3.774720971705392e-5 0.0002007673174375668 0.0013490639394149184
3.52538627339527e-5 0.00021193342399783432 0.0012699422659352422
3.184030356351286e-5 0.000217176740989089 0.0011918648378923535
2.7618556487141177e-5 0.000207873759791255 0.0011163523886352777
2.2772850570618175e-5 0.00017815180763136595 0.0010444404324516654
1.7538583051646128e-5 0.00012321649410296232 0.00097697414457798
1.2180190424260218e-5 3.714415288413875e-5 0.0009149981779046357
6.969491550989915e-6 -8.369384158868343e-5 0.0008591523510403931
2.165645810237038e-6 -0.00023533728381153196 0.0008087383466772735
-2.002310793614015e-6 -0.0004048703995067627 0.0007614787900820374
-5.3496896725846455e-6 -0.0005723702488467097 0.0007138606742955744
-7.746687515464146e-6 -0.0007145994459278882 0.0006617867038585246
-9.125015822064597e-6 -0.0008092274656519293 0.0006013193633407354
-4.777483354700962e-6 -0.00042101930011995137 0.0002842642134055495

CELL_DATA 50

VECTORS liftinglineloading               float
0.08873102068901062 -0.09605800360441208 0.008403986692428589
0.12868432700634003 -0.1598920375108719 0.013988740742206573
-0.052716843783855445 -0.031819459050893784 0.0027838421519845724
0.10754115134477614 -0.07261207699775696 0.006352733355015516
0.15973429381847382 -0.09252632409334183 0.008095004595816135
-0.19256697595119476 -0.1933300495147705 0.016914188861846924
-0.8223979473114014 -0.4136379063129425 0.036188628524541855
-1.8015518188476562 -0.6864581108093262 0.06005730479955673
-2.8219621181488037 -0.9307130575180053 0.08142684400081635
-3.870756149291992 -1.1566849946975708 0.10119681805372238
-4.699245452880859 -1.303263783454895 0.11402080953121185
-5.669943332672119 -1.4759063720703125 0.12912507355213165
-6.607498645782472 -1.6134889125823975 0.1411619931459427
-6.741583824157715 -1.600317120552063 0.14000959694385529
-6.928302764892578 -1.567746639251709 0.137160062789917
-7.384556770324706 -1.583025574684143 0.1384967863559723
-7.575416088104248 -1.5633670091629028 0.1367768943309784
-8.039105415344238 -1.5739668607711792 0.1377042531967163
-8.28120231628418 -1.5634543895721436 0.13678452372550964
-8.42347240447998 -1.5632622241973877 0.13676771521568298
-8.8103609085083 -1.5636082887649536 0.13679799437522888
-9.088976860046387 -1.514326572418213 0.13248640298843384
-9.126481056213379 -1.4602864980697632 0.12775851786136627
-9.298736572265625 -1.4336812496185303 0.1254308521747589
-9.482028007507324 -1.4018635749816895 0.12264717370271683
-9.707817077636719 -1.376840353012085 0.12045792490243912
-10.000092506408691 -1.3476345539093018 0.11790274828672409
-10.225173950195312 -1.3059465885162354 0.11425552517175676
-10.49024772644043 -1.2641427516937256 0.11059816181659697
-10.772380828857422 -1.2209703922271729 0.10682106018066406
-10.888961791992188 -1.170066475868225 0.10236755758523942
-11.439077377319336 -1.1470823287963867 0.10035669803619385
-11.482497215270996 -1.0887829065322876 0.09525616466999054
-11.5093994140625 -1.0443378686904907 0.09136772900819778
-11.514824867248535 -1.0065348148345947 0.08806038647890091
-11.467511177062988 -0.9699563384056092 0.0848601832985878
-11.358651161193848 -0.9489019513130188 0.08301816135644913
-11.211076736450195 -0.9318020939826965 0.08152212202548981
-11.01860523223877 -0.9081360101699829 0.07945160567760468
-10.662267684936523 -0.8837355375289917 0.07731684297323227
-10.376941680908203 -0.856916069984436 0.07497043907642365
-9.763201713562012 -0.82008695602417 0.07174830883741379
-8.837248802185059 -0.9216455221176149 0.08063353598117828
-7.583812713623047 -0.9819478988647461 0.08590931445360184
-6.52113676071167 -1.147168517112732 0.10036424547433853
-5.429958820343018 -1.2043757438659668 0.10536922514438629
-4.614713191986084 -1.2423744201660156 0.10869368165731429
-3.685124158859253 -1.2849457263946533 0.11241818219423294
-2.800915479660034 -1.3084081411361694 0.11447087675333024
-1.5083212852478027 -1.36525297164917 0.11944416165351868