# vtk DataFile Version 4.0
 
ASCII
DATASET UNSTRUCTURED_GRID
POINTS 51 float
0.0029255072586238384 0.007337261922657491 -0.0019144223770126698
0.0024741466622799635 0.011212719604372978 -0.0004671735223382712
0.0021053405944257975 0.015143858268857002 0.0006049416842870414
0.0016511689173057675 0.01905025914311409 0.0015228684060275555
0.001117104198783636 0.02292635664343834 0.0023019001819193363
0.0006340054678730667 0.0267020408064127 0.003134664613753557
0.0003643686359282583 0.03025928884744644 0.004345425870269537
0.0003691194870043546 0.03367430716753006 0.005724798887968063
0.000572872522752732 0.03706583380699158 0.006946571171283723
0.0008646587957628071 0.040343474596738815 0.008259091526269913
0.0011637704446911812 0.04354183375835419 0.009567271918058395
0.001422586850821972 0.04670661687850952 0.01074555516242981
0.0016198125667870045 0.04981011897325516 0.011870058253407478
0.0017542806454002857 0.05282250791788101 0.013022735714912415
0.001837961026467383 0.05574645474553109 0.014196259900927544
0.0018885409226641061 0.05860122665762901 0.01533767580986023
0.001923572504892945 0.06140466034412383 0.016397997736930847
0.0019564125686883926 0.06416083872318268 0.017365993931889534
0.0019946848042309284 0.06685779243707657 0.018274571746587753
0.002041437430307269 0.06947819143533707 0.019171306863427162
0.00209671794436872 0.07201065123081207 0.020087506622076035
0.002158778952434659 0.0744548887014389 0.021023955196142197
0.002224987605586648 0.07681785523891449 0.02196153812110424
0.002292493125423789 0.07910767197608948 0.022877922281622887
0.0023586952593177557 0.08133044838905334 0.02375638112425804
0.0024215481244027615 0.08348972350358963 0.024587122723460197
0.0024797271471470594 0.08558671921491623 0.02536683715879917
0.0025326928589493036 0.0876205563545227 0.02609793283045292
0.0025806704070419073 0.08958861976861954 0.026787571609020237
0.002624556189402938 0.09148702770471573 0.027446463704109192
0.0026656491681933403 0.09331145882606506 0.028086412698030472
0.0027052650693804026 0.09505844861268997 0.028717013075947758
0.002744461176916957 0.09672605246305466 0.02934354916214943
0.002783895470201969 0.09831421077251434 0.0299662072211504
0.0028237823862582445 0.09982465207576752 0.030580244958400726
0.0028639202937483788 0.10126060247421265 0.03117680177092552
0.0029037625063210726 0.10262634605169295 0.0317440927028656
0.0029425176326185465 0.1039264351129532 0.032269615679979324
0.002979256911203265 0.10516376048326492 0.03274541720747948
0.0030130252707749605 0.10633797198534012 0.033172477036714554
0.003042937722057104 0.10744530707597731 0.03356112167239189
0.003068262478336692 0.10847942531108858 0.03392878174781799
0.003088483354076743 0.10943248122930527 0.03429699316620827
0.0031033395789563656 0.11029481142759323 0.03469233959913254
0.0031128437258303165 0.11105445027351378 0.03514765575528145
0.003117278451099992 0.11169920861721039 0.03569645434617996
0.0031171750742942095 0.11221988499164581 0.03636401146650314
0.003113273996859789 0.1126132607460022 0.03715918958187103
0.0031064755748957396 0.11288396269083023 0.03806924447417259
0.003097780514508486 0.11304491013288498 0.03905869647860527
0.0030882256105542183 0.11311624944210052 0.04007218778133392

CELLS 50 150
2 0 1
2 1 2
2 2 3
2 3 4
2 4 5
2 5 6
2 6 7
2 7 8
2 8 9
2 9 10
2 10 11
2 11 12
2 12 13
2 13 14
2 14 15
2 15 16
2 16 17
2 17 18
2 18 19
2 19 20
2 20 21
2 21 22
2 22 23
2 23 24
2 24 25
2 25 26
2 26 27
2 27 28
2 28 29
2 29 30
2 30 31
2 31 32
2 32 33
2 33 34
2 34 35
2 35 36
2 36 37
2 37 38
2 38 39
2 39 40
2 40 41
2 41 42
2 42 43
2 43 44
2 44 45
2 45 46
2 46 47
2 47 48
2 48 49
2 49 50

CELL_TYPES 50
4
4
4
4
4
4
4
4
4
4
4
4
4
4
4
4
4
4
4
4
4
4
4
4
4
4
4
4
4
4
4
4
4
4
4
4
4
4
4
4
4
4
4
4
4
4
4
4
4
4

POINT_DATA 51

SCALARS zone float
LOOKUP_TABLE default
1.0
1.0
1.0
1.0
1.0
1.0
1.0
1.0
1.0
1.0
1.0
1.0
1.0
1.0
1.0
1.0
1.0
1.0
1.0
1.0
1.0
1.0
1.0
1.0
1.0
1.0
1.0
1.0
1.0
1.0
1.0
1.0
1.0
1.0
1.0
1.0
1.0
1.0
1.0
1.0
1.0
1.0
1.0
1.0
1.0
1.0
1.0
1.0
1.0
1.0
1.0

VECTORS normals float
-0.00022568028362002224 0.0019377288408577442 0.0007236244273371994
-0.00041008330299519 0.0039032979402691126 0.0012596820015460253
-0.0004114889306947589 0.003918769769370556 0.0009950209641829133
-0.0004941182560287416 0.0038912496529519554 0.0008484792779199779
-0.00050858169561252 0.0038258908316493034 0.0008058981038630009
-0.00037636776687577367 0.0036664656363427635 0.0010217629605904222
-0.00013244299043435603 0.0034861338790506124 0.001295067137107253
0.00010425192886032163 0.0034032731782644983 0.0013005725340917706
0.00024776963982731104 0.0033345823176205163 0.0012671462027356029
0.00029544899007305503 0.0032380004413425922 0.0013103503733873367
0.00027896405663341284 0.003181572537869215 0.001243232167325914
0.00022802104649599642 0.003134142141789198 0.0011513929348438978
0.00016584688273724169 0.003057945054024458 0.0011385901598259807
0.00010907424439210443 0.002968166721984744 0.0011631011730059981
6.713013135595247e-5 0.0028893593698740005 0.0011574701638892293
4.280570647097193e-5 0.0028291037306189537 0.0011008685687556863
3.3935823012143373e-5 0.00277980649843812 0.0010141587117686868
3.555617877282202e-5 0.0027265644166618586 0.0009382874122820793
4.251242717145942e-5 0.002658675890415907 0.0009026565821841358
5.1016584620811045e-5 0.002576432190835476 0.0009064667974598706
5.867081563337706e-5 0.0024883474688977003 0.0009263247484341264
6.413481605704874e-5 0.0024035992100834846 0.0009370158077217638
6.685699190711603e-5 0.0023263939656317234 0.0009269830188713968
6.685387052129954e-5 0.002256296342238784 0.0008974217344075441
6.452756497310475e-5 0.002191025298088789 0.0008545999880880116
6.0515933000715456e-5 0.002128138206899166 0.0008052278426475823
5.557234908337704e-5 0.002065415261313319 0.0007554051117040217
5.047163722338155e-5 0.0020009507425129414 0.0007103672251105309
4.5931661588838324e-5 0.0019332338124513626 0.0006742653204128146
4.24893842136953e-5 0.001861419528722763 0.000649420777335763
4.035446181660518e-5 0.0017857110360637307 0.000635275267995894
3.940596798202023e-5 0.0017072954215109346 0.0006285679410211742
3.931512765120715e-5 0.0016278838738799093 0.0006245964323170483
3.966056101489812e-5 0.0015493009705096483 0.0006183484802022576
4.001240085926838e-5 0.0014731941046193242 0.0006052977405488491
3.999012187705375e-5 0.0014008445432409644 0.0005819237558171153
3.9298683986999094e-5 0.001332914805971086 0.0005464064888656139
3.774720971705392e-5 0.001268707332201302 0.00050066236872226
3.52538627339527e-5 0.0012057690182700753 0.0004514314059633762
3.184030356351286e-5 0.0011407736456021667 0.00040785188321024174
2.7618556487141177e-5 0.0010707264300435781 0.0003781522682402283
2.2772850570618175e-5 0.000993587775155902 0.0003679362125694752
1.7538583051646128e-5 0.0009076926507987083 0.00038177845999598503
1.2180190424260218e-5 0.0008109837654046713 0.00042533129453659063
6.969491550989915e-6 0.0007022008066996932 0.0005020571406930685
2.165645810237038e-6 0.0005827192799188197 0.0006081772153265774
-2.002310793614015e-6 0.000457024754723534 0.0007313674432225525
-5.3496896725846455e-6 0.00033203637576662004 0.0008526175515726209
-7.746687515464146e-6 0.00021582437329925597 0.0009497546125203371
-9.125015822064597e-6 0.0001161440959549509 0.0010014711879193783
-4.777483354700962e-6 3.567037856555544e-5 0.0005067455349490047

CELL_DATA 50

VECTORS liftinglineloading               float
0.06413517147302628 -0.0331776961684227 0.0711498036980629
0.04700155928730965 -0.031945787370204926 0.06850796192884445
-0.009710094891488552 -0.020456427708268166 0.04386895149946213
0.13264454901218414 -0.03919801488518715 0.0840604156255722
0.0567113272845745 -0.05520790442824364 0.11839372664690019
-0.4105685949325561 -0.10855074971914293 0.2327878326177597
-1.1038028001785278 -0.20999126136302945 0.45032772421836853
-2.0812220573425293 -0.3172076940536499 0.6802541017532349
-3.146963119506836 -0.41910815238952637 0.8987803459167482
-4.194272041320801 -0.5104075074195862 1.0945724248886108
-5.018714427947998 -0.5687564611434937 1.219702124595642
-5.974427700042725 -0.6410943865776062 1.3748313188552856
-6.890461444854737 -0.6965753436088562 1.4938106536865234
-6.8699350357055655 -0.6808768510818481 1.460145115852356
-7.169421195983886 -0.672197163105011 1.4415315389633179
-7.605568408966065 -0.6766650080680847 1.4511127471923828
-7.793089866638184 -0.6664208173751831 1.4291441440582275
-8.21815299987793 -0.6670969128608704 1.4305939674377441
-8.469035148620605 -0.662260115146637 1.4202214479446411
-8.63005256652832 -0.6633822321891785 1.4226278066635132
-8.983281135559082 -0.6615139245986938 1.4186211824417114
-9.290945053100586 -0.6411833167076111 1.375022053718567
-9.314008712768555 -0.6174604892730713 1.3241482973098755
-9.479571342468262 -0.6054837703704834 1.2984641790390015
-9.65728759765625 -0.5909687280654907 1.2673364877700806
-9.892607688903809 -0.5797237157821655 1.2432215213775635
-10.174965858459473 -0.5668529272079468 1.2156200408935547
-10.425909996032715 -0.549509584903717 1.1784271001815796
-10.715779304504395 -0.5316364765167236 1.1400980949401855
-11.042820930480957 -0.5125960111618042 1.099265694618225
-11.136592864990234 -0.49085453152656555 1.0526409149169922
-11.698945999145508 -0.479891985654831 1.0291316509246826
-11.750543594360352 -0.4537857174873352 0.9731466174125671
-11.780402183532715 -0.43532550334930414 0.9335585832595825
-11.782718658447266 -0.41991740465164185 0.9005157351493835
-11.753570556640625 -0.4048202931880951 0.868139922618866
-11.64663314819336 -0.39648187160491943 0.8502581119537352
-11.490971565246582 -0.3900144398212433 0.8363887071609497
-11.292160987854004 -0.3804902136325836 0.8159638643264769
-10.917409896850586 -0.3708641231060028 0.7953206896781921
-10.61898136138916 -0.360026478767395 0.7720792889595032
-9.986144065856934 -0.3460663855075836 0.7421417832374573
-9.0292329788208 -0.3900647759437561 0.8364965915679932
-7.720796585083008 -0.41667014360427856 0.8935520052909851
-6.5199832916259775 -0.48609620332717896 1.0424367189407349
-5.430658340454102 -0.5104741454124451 1.0947152376174927
-4.6156840324401855 -0.5266492366790771 1.1294028759002686
-3.68562388420105 -0.5447286367416382 1.168174386024475
-2.80047345161438 -0.5546731948852539 1.1895005702972412
-1.5072320699691772 -0.5787163972854614 1.2410613298416138