# vtk DataFile Version 4.0
 
ASCII
DATASET UNSTRUCTURED_GRID
POINTS 51 float
0.0029255072586238384 0.0037482131738215685 0.006591761950403452
0.0024741466622799635 0.003353320294991136 0.010709742084145546
0.0021053405944257975 0.0033351900056004524 0.014784414321184157
0.0016511689173057675 0.0034595918841660023 0.018795285373926163
0.001117104198783636 0.0037103130016475916 0.022740935906767845
0.0006340054678730667 0.003883143188431859 0.026603501290082928
0.0003643686359282583 0.003634320804849267 0.03035290725529194
0.0003691194870043546 0.0031858214642852545 0.03400857001543045
0.000572872522752732 0.0028834715485572815 0.03760075196623802
0.0008646587957628071 0.0024639898911118507 0.041106414049863815
0.0011637704446911812 0.002028181217610836 0.04453437402844429
0.001422586850821972 0.0017091528279706836 0.047896284610033035
0.0016198125667870045 0.0014262120239436626 0.05118507891893387
0.0017542806454002857 0.0010924744419753551 0.05439315736293793
0.001837961026467383 0.0007157094078138471 0.05752120167016984
0.0018885409226641061 0.0003520563477650285 0.060574121773242944
0.001923572504892945 5.34464415977709e-5 0.06355646252632141
0.0019564125686883926 -0.00016821410099510103 0.06646925956010818
0.0019946848042309284 -0.00034781210706569254 0.06930947303771973
0.002041437430307269 -0.0005357807967811823 0.07207267731428146
0.00209671794436872 -0.0007653119973838329 0.07475598156452179
0.002158778952434659 -0.0010372393298894167 0.07735929638147354
0.002224987605586648 -0.001331293024122715 0.07988440990447998
0.002292493125423789 -0.0016238028183579445 0.08233338594436646
0.0023586952593177557 -0.0018970336532220244 0.08470778167247772
0.0024215481244027615 -0.0021406051237136126 0.08700849860906601
0.0024797271471470594 -0.002351009054109454 0.08923584222793579
0.0025326928589493036 -0.0025307980831712484 0.09138960391283035
0.0025806704070419073 -0.002687564818188548 0.09346909821033478
0.002624556189402938 -0.0028326630126684904 0.09547334909439087
0.0026656491681933403 -0.002978607779368758 0.09740124642848969
0.0027052650693804026 -0.003135568695142865 0.09925191849470139
0.002744461176916957 -0.0033091467339545484 0.10102485865354538
0.002783895470201969 -0.0034995416644960638 0.10272006690502167
0.0028237823862582445 -0.003701726906001568 0.10433796048164368
0.0028639202937483788 -0.003906305879354477 0.10587938129901885
0.0029037625063210726 -0.004100786987692118 0.10734540969133377
0.0029425176326185465 -0.004271914716809988 0.10873721539974211
0.002979256911203265 -0.004411261063069105 0.11005552858114244
0.0030130252707749605 -0.004519861191511154 0.1113002598285675
0.003042937722057104 -0.004608662333339453 0.11247045546770097
0.003068262478336692 -0.004696146119385958 0.11356449127197266
0.003088483354076743 -0.004805141594260931 0.1145803779363632
0.0031033395789563656 -0.004963829182088375 0.11551564186811447
0.0031128437258303165 -0.005207022652029991 0.11636724323034285
0.003117278451099992 -0.005570243578404188 0.11713207513093948
0.0031171750742942095 -0.006080293096601963 0.11780778318643569
0.003113273996859789 -0.006746563594788313 0.11839356273412704
0.0031064755748957396 -0.007555549032986164 0.11889057606458664
0.003097780514508486 -0.008469629101455212 0.11930213123559952
0.0030882256105542183 -0.009430122561752796 0.11963335424661638

CELLS 50 150
2 0 1
2 1 2
2 2 3
2 3 4
2 4 5
2 5 6
2 6 7
2 7 8
2 8 9
2 9 10
2 10 11
2 11 12
2 12 13
2 13 14
2 14 15
2 15 16
2 16 17
2 17 18
2 18 19
2 19 20
2 20 21
2 21 22
2 22 23
2 23 24
2 24 25
2 25 26
2 26 27
2 27 28
2 28 29
2 29 30
2 30 31
2 31 32
2 32 33
2 33 34
2 34 35
2 35 36
2 36 37
2 37 38
2 38 39
2 39 40
2 40 41
2 41 42
2 42 43
2 43 44
2 44 45
2 45 46
2 46 47
2 47 48
2 48 49
2 49 50

CELL_TYPES 50
4
4
4
4
4
4
4
4
4
4
4
4
4
4
4
4
4
4
4
4
4
4
4
4
4
4
4
4
4
4
4
4
4
4
4
4
4
4
4
4
4
4
4
4
4
4
4
4
4
4

POINT_DATA 51

SCALARS zone float
LOOKUP_TABLE default
1.0
1.0
1.0
1.0
1.0
1.0
1.0
1.0
1.0
1.0
1.0
1.0
1.0
1.0
1.0
1.0
1.0
1.0
1.0
1.0
1.0
1.0
1.0
1.0
1.0
1.0
1.0
1.0
1.0
1.0
1.0
1.0
1.0
1.0
1.0
1.0
1.0
1.0
1.0
1.0
1.0
1.0
1.0
1.0
1.0
1.0
1.0
1.0
1.0
1.0
1.0

VECTORS normals float
-0.00022568028362002224 -0.00019744638120755553 0.002058990066871047
-0.00041008330299519 -0.00020651152590289712 0.0040963259525597095
-0.0004114889306947589 5.3135787311475724e-5 0.004042771179229021
-0.0004941182560287416 0.00018756146891973913 0.003978261258453131
-0.00050858169561252 0.00021177565213292834 0.0039041086565703154
-0.00037636776687577367 -3.799607293331064e-5 0.003805985441431403
-0.00013244299043435603 -0.0003486608911771327 0.0037025348283350463
0.00010425192886032163 -0.0003754247154574841 0.003623922355473042
0.00024776963982731104 -0.0003609158447943628 0.003548920853063464
0.00029544899007305503 -0.00042764516547322273 0.003466811729595065
0.00027896405663341284 -0.0003774185024667531 0.0033949350472539663
0.00022802104649599642 -0.0003009845386259258 0.0033253512810915713
0.00016584688273724169 -0.00030833916389383376 0.0032484368421137337
0.00010907424439210443 -0.0003552513080649078 0.0031680616084486246
6.713013135595247e-5 -0.0003702090762089938 0.0030904822051525116
4.280570647097193e-5 -0.00033113150857388973 0.003017629962414503
3.3935823012143373e-5 -0.00026013521710410714 0.0029475705232471228
3.555617877282202e-5 -0.0002006292634177953 0.002876505721360445
4.251242717145942e-5 -0.000183783340617083 0.002801708411425352
5.1016584620811045e-5 -0.0002087499451590702 0.002723253332078457
5.867081563337706e-5 -0.00025072923745028675 0.002643309533596039
6.413481605704874e-5 -0.00028299051336944103 0.0025642162654548883
6.685699190711603e-5 -0.00029328177333809435 0.002487044781446457
6.685387052129954e-5 -0.0002828703436534852 0.0024116847198456526
6.452756497310475e-5 -0.0002584011235740036 0.0023375547025352716
6.0515933000715456e-5 -0.0002269876567879692 0.0022640321403741837
5.557234908337704e-5 -0.00019509647972881794 0.0021905512548983097
5.047163722338155e-5 -0.00016827786748763174 0.0021166265942156315
4.5931661588838324e-5 -0.0001509325229562819 0.002041873289272189
4.24893842136953e-5 -0.0001455215096939355 0.001966075738891959
4.035446181660518e-5 -0.00015145276847761124 0.0018892857478931544
3.940596798202023e-5 -0.00016526943363714963 0.001811806112527847
3.931512765120715e-5 -0.0001819864846765995 0.0017340725753456354
3.966056101489812e-5 -0.00019629015878308564 0.0016565502155572178
4.001240085926838e-5 -0.00020338204922154546 0.0015796588268131018
3.999012187705375e-5 -0.00019952995353378356 0.0015037248376756907
3.9298683986999094e-5 -0.00018280440417584032 0.001428917283192277
3.774720971705392e-5 -0.00015523711044806987 0.0013550581643357873
3.52538627339527e-5 -0.00012397326645441353 0.0012815224472433329
3.184030356351286e-5 -9.870070789474994e-5 0.0012074625119566917
2.7618556487141177e-5 -8.81426312844269e-5 0.0011321153724566102
2.2772850570618175e-5 -9.823963046073914e-5 0.0010549610015004873
1.7538583051646128e-5 -0.00013384151679929346 0.0009755752980709076
1.2180190424260218e-5 -0.00020094045612495393 0.0008934339857660235
6.969491550989915e-6 -0.0003032070235349238 0.0008082158747129142
2.165645810237038e-6 -0.0004366352513898164 0.000720271491445601
-2.002310793614015e-6 -0.0005881600081920624 0.0006307438598014414
-5.3496896725846455e-6 -0.0007376279681921005 0.0005413961480371654
-7.746687515464146e-6 -0.0008615330443717539 0.0004542849201243371
-9.125015822064597e-6 -0.0009372865897603333 0.00037138641346246004
-4.777483354700962e-6 -0.00048024641000665724 0.00016561032680328935

CELL_DATA 50

VECTORS liftinglineloading               float
0.03744443506002426 -0.05520864948630332 -0.009734774939715862
-0.01896626316010952 -0.0006204924429766834 -0.00010940955689875409
0.055053651332855225 -0.0689413771033287 -0.012156225740909576
0.08385356515645981 -0.10983315110206603 -0.019366547465324402
-0.08940891176462173 -0.17638127505779266 -0.03110077604651451
-0.641521155834198 -0.3124743700027466 -0.05509765818715095
-1.3536324501037598 -0.5437961220741272 -0.09588592499494553
-2.232985258102417 -0.7608796954154968 -0.13416361808776855
-3.2499625682830806 -0.9857701063156128 -0.17381787300109863
-4.265050411224365 -1.191456913948059 -0.21008600294589994
-5.080198287963867 -1.3259257078170776 -0.23379647731781006
-6.046689033508301 -1.497488260269165 -0.2640475630760193
-6.999321937561035 -1.6319063901901247 -0.28774914145469666
-7.090146541595459 -1.6061304807662964 -0.2832041382789612
-7.403408050537109 -1.5885515213012695 -0.28010451793670654
-7.908602714538573 -1.604583740234375 -0.282931387424469
-8.166078567504883 -1.5827406644821167 -0.2790798842906952
-8.604090690612793 -1.5780165195465088 -0.2782468795776367
-8.910685539245605 -1.5678110122680664 -0.2764473855495453
-8.965956687927246 -1.5668901205062866 -0.2762850224971771
-9.341753005981445 -1.5597789287567139 -0.27503111958503723
-9.60401439666748 -1.5093324184417725 -0.2661360204219818
-9.590449333190918 -1.4507925510406494 -0.255813866853714
-9.711060523986816 -1.4197466373443604 -0.2503396272659302
-9.838184356689453 -1.3827383518218994 -0.24381406605243686
-10.031950950622559 -1.3547443151474 -0.2388779670000076
-10.284989356994629 -1.323686957359314 -0.23340173065662384
-10.476487159729004 -1.283471941947937 -0.22631074488162992
-10.744064331054688 -1.2415865659713745 -0.2189252078533173
-11.038419723510742 -1.1976243257522583 -0.21117348968982694
-11.152311325073242 -1.1454659700393677 -0.20197655260562897
-11.704724311828613 -1.1198501586914062 -0.19745980203151703
-11.759200096130371 -1.0584311485290527 -0.186629980802536
-11.791190147399902 -1.0148483514785767 -0.1789451390504837
-11.798086166381836 -0.9783347845077515 -0.17250680923461914
-11.750365257263184 -0.9435486197471619 -0.16637307405471802
-11.65289306640625 -0.9234573245048523 -0.1628304421901703
-11.505722999572754 -0.9078775644302368 -0.16008330881595612
-11.271079063415527 -0.8861208558082582 -0.15624700486660004
-10.890578269958496 -0.8636903166770934 -0.1522919088602066
-10.582586288452148 -0.8385414481163025 -0.14785747230052948
-9.938814163208008 -0.8057853579521179 -0.14208170771598816
-8.973054885864258 -0.9078582525253296 -0.16007989645004272
-7.6550822257995605 -0.9689964652061462 -0.17086021602153778
-6.5732154846191415 -1.1341543197631836 -0.19998201727867126
-5.465643882751465 -1.1910254955291748 -0.21000993251800537
-4.636767864227295 -1.2281240224838257 -0.21655140817165378
-3.6960973739624023 -1.2695841789245605 -0.2238619476556778
-2.8007636070251465 -1.2916947603225708 -0.2277606427669525
-1.5053634643554688 -1.3471497297286987 -0.23753885924816132