# vtk DataFile Version 4.0
 
ASCII
DATASET UNSTRUCTURED_GRID
POINTS 51 float
0.0029255072586238384 0.003834526753053069 -0.006541928742080927
0.0024741466622799635 0.007598248776048422 -0.008258931338787079
0.0021053405944257975 0.01113608293235302 -0.010280566290020943
0.0016511689173057675 0.014547398313879965 -0.012393737211823463
0.001117104198783636 0.01783907227218151 -0.014583693817257881
0.0006340054678730667 0.021097736433148384 -0.016664652153849602
0.0003643686359282583 0.024469228461384773 -0.0183238685131073
0.0003691194870043546 0.02785937674343586 -0.019763289019465446
0.000572872522752732 0.031121470034122464 -0.021297534927725792
0.0008646587957628071 0.03436720371246338 -0.02268708497285843
0.0011637704446911812 0.0375538095831871 -0.024023644626140594
0.001422586850821972 0.04062482342123985 -0.02542831189930439
0.0016198125667870045 0.043614473193883896 -0.026827674359083176
0.0017542806454002857 0.04655962064862251 -0.028142688795924187
0.001837961026467383 0.049456965178251266 -0.029380423948168755
0.0018885409226641061 0.052282698452472694 -0.03059194982051849
0.001923572504892945 0.05501478537917138 -0.031824517995119095
0.0019564125686883926 0.05764817818999291 -0.03308895230293274
0.0019946848042309284 0.06019767001271248 -0.03435352072119713
0.002041437430307269 0.06268466264009476 -0.03557233884930611
0.00209671794436872 0.06512323021888733 -0.03671520948410034
0.002158778952434659 0.06751373410224915 -0.03778137266635895
0.002224987605586648 0.06984757632017136 -0.03878927230834961
0.002292493125423789 0.07211470603942871 -0.039760440587997437
0.0023586952593177557 0.07430760562419891 -0.04071101173758507
0.0024215481244027615 0.07642187178134918 -0.041650429368019104
0.0024797271471470594 0.07845601439476013 -0.042581889778375626
0.0025326928589493036 0.08041111379861832 -0.043503064662218094
0.0025806704070419073 0.0822903960943222 -0.04440705105662346
0.002624556189402938 0.08409867435693741 -0.04528351500630379
0.0026656491681933403 0.08584126085042953 -0.04612107574939728
0.0027052650693804026 0.0875224694609642 -0.04691047593951225
0.002744461176916957 0.08914466947317123 -0.04764662683010101
0.002783895470201969 0.09070795774459839 -0.04832933843135834
0.0028237823862582445 0.09221018850803375 -0.048963192850351334
0.0028639202937483788 0.09364738315343857 -0.049556732177734375
0.0029037625063210726 0.09501424431800842 -0.05012132227420807
0.0029425176326185465 0.09630514681339264 -0.050669021904468536
0.002979256911203265 0.0975165143609047 -0.05120750144124032
0.0030130252707749605 0.0986487865447998 -0.05173581466078758
0.003042937722057104 0.09970659762620926 -0.052244007587432854
0.003068262478336692 0.10069780796766281 -0.0527152642607689
0.003088483354076743 0.10163208842277527 -0.053128812462091446
0.0031033395789563656 0.10252139717340471 -0.053459018468856805
0.0031128437258303165 0.10338050127029418 -0.05367420613765717
0.003117278451099992 0.10422447323799133 -0.05374206602573395
0.0031171750742942095 0.10506468266248703 -0.053638204932212837
0.003113273996859789 0.10590511560440063 -0.053354084491729736
0.0031064755748957396 0.10674003511667253 -0.052901990711688995
0.003097780514508486 0.10755348950624465 -0.052316151559352875
0.0030882256105542183 0.10832058638334273 -0.051649950444698334

CELLS 50 150
2 0 1
2 1 2
2 2 3
2 3 4
2 4 5
2 5 6
2 6 7
2 7 8
2 8 9
2 9 10
2 10 11
2 11 12
2 12 13
2 13 14
2 14 15
2 15 16
2 16 17
2 17 18
2 18 19
2 19 20
2 20 21
2 21 22
2 22 23
2 23 24
2 24 25
2 25 26
2 26 27
2 27 28
2 28 29
2 29 30
2 30 31
2 31 32
2 32 33
2 33 34
2 34 35
2 35 36
2 36 37
2 37 38
2 38 39
2 39 40
2 40 41
2 41 42
2 42 43
2 43 44
2 44 45
2 45 46
2 46 47
2 47 48
2 48 49
2 49 50

CELL_TYPES 50
4
4
4
4
4
4
4
4
4
4
4
4
4
4
4
4
4
4
4
4
4
4
4
4
4
4
4
4
4
4
4
4
4
4
4
4
4
4
4
4
4
4
4
4
4
4
4
4
4
4

POINT_DATA 51

SCALARS zone float
LOOKUP_TABLE default
1.0
1.0
1.0
1.0
1.0
1.0
1.0
1.0
1.0
1.0
1.0
1.0
1.0
1.0
1.0
1.0
1.0
1.0
1.0
1.0
1.0
1.0
1.0
1.0
1.0
1.0
1.0
1.0
1.0
1.0
1.0
1.0
1.0
1.0
1.0
1.0
1.0
1.0
1.0
1.0
1.0
1.0
1.0
1.0
1.0
1.0
1.0
1.0
1.0
1.0
1.0

VECTORS normals float
-0.00022568028362002224 0.0018818608950823548 -0.0008585014729760587
-0.00041008330299519 0.003650778206065297 -0.0018693187739700077
-0.0004114889306947589 0.0034745747689157724 -0.002067402470856905
-0.0004941182560287416 0.003351494437083602 -0.0021515635307878256
-0.00050858169561252 0.0032751692924648523 -0.002135457471013069
-0.00037636776687577367 0.0033150780946016316 -0.0018700871150940654
-0.00013244299043435603 0.0033808196894824505 -0.0015493181999772787
0.00010425192886032163 0.003326121252030134 -0.001486833905801177
0.00024776963982731104 0.00325391348451376 -0.001461898093111813
0.00029544899007305503 0.003216169774532318 -0.001363054383546114
0.00027896405663341284 0.0031288093887269497 -0.0013706135796383023
0.00022802104649599642 0.0030303308740258217 -0.0014020154485478997
0.00016584688273724169 0.0029673983808606863 -0.0013571889139711857
0.00010907424439210443 0.002921247621998191 -0.0012763742124661803
6.713013135595247e-5 0.0028615405317395926 -0.0012246306287124753
4.280570647097193e-5 0.0027789101004600525 -0.0012220466742292047
3.3935823012143373e-5 0.002682738471776247 -0.0012485014740377665
3.555617877282202e-5 0.0025914416182786226 -0.0012645027600228786
4.251242717145942e-5 0.00251824245788157 -0.0012416931567713618
5.1016584620811045e-5 0.002462781500071287 -0.0011808439157903194
5.867081563337706e-5 0.002414537826552987 -0.0011045169085264206
6.413481605704874e-5 0.0023621716536581516 -0.0010370311792939901
6.685699190711603e-5 0.002300485037267208 -0.0009895330294966698
6.685387052129954e-5 0.0022300155833363533 -0.0009608694817870854
6.452756497310475e-5 0.0021535821724683046 -0.0009449953795410693
6.0515933000715456e-5 0.002074202988296747 -0.0009354389621876179
5.557234908337704e-5 0.001994621241465211 -0.0009263171232305466
5.047163722338155e-5 0.0019171913154423237 -0.0009125804062932731
4.5931661588838324e-5 0.001843780279159546 -0.0008902251720428466
4.24893842136953e-5 0.0017754322616383433 -0.0008570125210098923
4.035446181660518e-5 0.0017118959221988919 -0.00081348093226552
3.940596798202023e-5 0.0016517047770321371 -0.0007627754821442068
3.931512765120715e-5 0.001592744141817093 -0.0007094313623383641
3.966056101489812e-5 0.001532759633846581 -0.0006582828355021775
4.001240085926838e-5 0.0014697157312184572 -0.000613695359788835
3.999012187705375e-5 0.0014020289527252316 -0.000579064420890063
3.9298683986999094e-5 0.001328880898654461 -0.0005561453872360289
3.774720971705392e-5 0.001251133275218308 -0.0005430897581391037
3.52538627339527e-5 0.001171817653812468 -0.0005333971930667758
3.184030356351286e-5 0.0010950436117127538 -0.000518253946211189
2.7618556487141177e-5 0.0010245119920000434 -0.0004897239268757403
2.2772850570618175e-5 0.0009627428371459246 -0.0004424024955369532
1.7538583051646128e-5 0.0009117937879636884 -0.00037187751149758697
1.2180190424260218e-5 0.0008742067730054259 -0.0002726974489632994
6.969491550989915e-6 0.0008515390218235552 -0.0001415229489794001
2.165645810237038e-6 0.0008420910453423858 1.8001474018092267e-5
-2.002310793614015e-6 0.0008403201936744153 0.000193989573745057
-5.3496896725846455e-6 0.0008376768091693522 0.00036810646997764707
-7.746687515464146e-6 0.0008241888135671615 0.0005189670482650399
-9.125015822064597e-6 0.0007902733632363379 0.0006260208319872618
-4.777483354700962e-6 0.0003835459647234529 0.0003331004118081182

CELL_DATA 50

VECTORS liftinglineloading               float
0.01034481916576624 0.0063215093687176704 0.01736820489168167
0.011319290846586227 0.011249624192714691 0.030908089131116864
0.046702299267053604 0.02869536355137825 0.07883986085653305
0.010415920987725258 0.043949026614427567 0.12074895948171616
-0.22890354692935944 0.07509263604879379 0.2063153088092804
-0.8147441148757935 0.12331062555313112 0.33879315853118896
-1.5412927865982056 0.20096546411514282 0.5521481037139893
-2.426689863204956 0.27471208572387695 0.7547652721405029
-3.465355634689331 0.35308659076690674 0.9700974225997925
-4.44699764251709 0.42167335748672485 1.1585379838943481
-5.227998733520508 0.4658997654914856 1.2800490856170654
-6.157874584197998 0.5235159993171692 1.438348412513733
-7.07716703414917 0.5680528283119202 1.5607123374938965
-7.130437374114989 0.5571284294128418 1.5306978225708008
-7.440170764923096 0.5507339835166931 1.5131291151046753
-7.9396891593933105 0.5557012557983398 1.5267765522003174
-8.203512191772461 0.5477242469787598 1.5048600435256958
-8.634516716003418 0.5450968146324158 1.4976412057876587
-8.948792457580566 0.541392982006073 1.4874649047851562
-9.064257621765137 0.5430147647857666 1.491920828819275
-9.42243480682373 0.5395672917366028 1.4824490547180176
-9.672243118286133 0.5219690203666687 1.4340980052947998
-9.644559860229492 0.5014021396636963 1.3775910139083862
-9.75162410736084 0.4903825521469116 1.3473149538040161
-9.865483283996582 0.47729071974754333 1.3113454580307007
-10.051344871520996 0.4675048887729644 1.284459114074707
-10.303970336914062 0.4567480087280273 1.254904866218567
-10.54692554473877 0.4428046643733979 1.2165957689285278
-10.831765174865723 0.42825061082839966 1.1766088008880615
-11.148714065551758 0.41278529167175293 1.1341183185577393
-11.276873588562012 0.39435529708862305 1.083482265472412
-11.836907386779785 0.3848719000816345 1.057426929473877
-11.898676872253418 0.36292582750320435 0.9971305131912231
-11.94359016418457 0.3478667438030243 0.9557560682296753
-11.961484909057617 0.3353729844093323 0.9214296936988831
-11.908206939697266 0.32368046045303345 0.8893047571182252
-11.819153785705566 0.3170987665653229 0.8712216615676881
-11.676386833190918 0.3120315372943878 0.8572996258735657
-11.485950469970703 0.3044499456882477 0.8364692926406859
-11.105202674865723 0.29702693223953247 0.816074788570404
-10.798697471618652 0.28857505321502686 0.7928534746170044
-10.147693634033203 0.27839288115501404 0.7648781538009644
-9.161101341247559 0.31448084115982056 0.864029049873352
-7.832077503204345 0.33661800622940063 0.924850344657898
-6.734576702117919 0.3957136869430542 1.087214469909668
-5.611759662628174 0.4163888096809387 1.1440188884735107
-4.7683424949646 0.4296672642230987 1.180501103401184
-3.8102371692657475 0.4444350600242615 1.2210752964019775
-2.89615535736084 0.4526715576648712 1.243704915046692
-1.5600014925003052 0.47216033935546875 1.2972499132156372