# vtk DataFile Version 4.0
 
ASCII
DATASET UNSTRUCTURED_GRID
POINTS 51 float
0.0029255072586238384 0.0012676528422161937 0.00747619429603219
0.0024741466622799635 -0.0005118571571074426 0.011210768483579159
0.0021053405944257975 -0.0019225138239562514 0.01503350678831339
0.0016511689173057675 -0.0031774130184203386 0.01884504035115242
0.001117104198783636 -0.004291304387152195 0.022638492286205292
0.0006340054678730667 -0.005449972581118345 0.026327228173613545
0.0003643686359282583 -0.006966161075979471 0.0297654140740633
0.0003691194870043546 -0.008637923747301102 0.03304721787571907
0.000572872522752732 -0.010150637477636337 0.03631935268640518
0.0008646587957628071 -0.011743828654289246 0.0394701287150383
0.0011637704446911812 -0.013325786218047142 0.04254230111837387
0.001422586850821972 -0.014775415882468225 0.04559234902262688
0.0016198125667870045 -0.01616612635552883 0.048586033284664154
0.0017542806454002857 -0.01757696457207203 0.05148649588227272
0.001837961026467383 -0.019000861793756485 0.054297033697366714
0.0018885409226641061 -0.020386744290590286 0.0570414662361145
0.001923572504892945 -0.02168736606836319 0.05974181741476058
0.0019564125686883926 -0.022891895845532417 0.06240314245224
0.0019946848042309284 -0.024032073095440865 0.06501064449548721
0.002041437430307269 -0.02515377663075924 0.0675429180264473
0.00209671794436872 -0.026287209242582325 0.06998588889837265
0.002158778952434659 -0.02743312530219555 0.07233920693397522
0.002224987605586648 -0.028573084622621533 0.07461146265268326
0.002292493125423789 -0.029685553163290027 0.07681270688772202
0.0023586952593177557 -0.030754396691918373 0.07895044982433319
0.0024215481244027615 -0.031770169734954834 0.08102910965681076
0.0024797271471470594 -0.032729681581258774 0.08305017650127411
0.0025326928589493036 -0.033635254949331284 0.08501254767179489
0.0025806704070419073 -0.03449380025267601 0.08691301941871643
0.002624556189402938 -0.03531564027070999 0.08874677121639252
0.0026656491681933403 -0.036112166941165924 0.09050849080085754
0.0027052650693804026 -0.03689262643456459 0.09219386428594589
0.002744461176916957 -0.037662118673324585 0.09380052238702774
0.002783895470201969 -0.038420822471380234 0.09532836824655533
0.0028237823862582445 -0.03916417062282562 0.09677954763174057
0.0028639202937483788 -0.039883606135845184 0.09815803915262222
0.0029037625063210726 -0.04056777060031891 0.0994691401720047
0.0029425176326185465 -0.041204605251550674 0.10071847587823868
0.002979256911203265 -0.04178643599152565 0.10190963000059128
0.0030130252707749605 -0.04231421276926994 0.10304214805364609
0.003042937722057104 -0.042797885835170746 0.10411140322685242
0.003068262478336692 -0.04325427860021591 0.10510953515768051
0.003088483354076743 -0.04370415210723877 0.10602688044309615
0.0031033395789563656 -0.04417315125465393 0.10685146600008011
0.0031128437258303165 -0.04469294100999832 0.10756853222846985
0.003117278451099992 -0.045295845717191696 0.1081630066037178
0.0031171750742942095 -0.04600624367594719 0.10862352699041367
0.003113273996859789 -0.046832676976919174 0.10894609242677689
0.0031064755748957396 -0.04776286706328392 0.10913644731044769
0.003097780514508486 -0.04876257851719856 0.1092105507850647
0.0030882256105542183 -0.04977843165397644 0.10919328778982162

CELLS 50 150
2 0 1
2 1 2
2 2 3
2 3 4
2 4 5
2 5 6
2 6 7
2 7 8
2 8 9
2 9 10
2 10 11
2 11 12
2 12 13
2 13 14
2 14 15
2 15 16
2 16 17
2 17 18
2 18 19
2 19 20
2 20 21
2 21 22
2 22 23
2 23 24
2 24 25
2 25 26
2 26 27
2 27 28
2 28 29
2 29 30
2 30 31
2 31 32
2 32 33
2 33 34
2 34 35
2 35 36
2 36 37
2 37 38
2 38 39
2 39 40
2 40 41
2 41 42
2 42 43
2 43 44
2 44 45
2 45 46
2 46 47
2 47 48
2 48 49
2 49 50

CELL_TYPES 50
4
4
4
4
4
4
4
4
4
4
4
4
4
4
4
4
4
4
4
4
4
4
4
4
4
4
4
4
4
4
4
4
4
4
4
4
4
4
4
4
4
4
4
4
4
4
4
4
4
4

POINT_DATA 51

SCALARS zone float
LOOKUP_TABLE default
1.0
1.0
1.0
1.0
1.0
1.0
1.0
1.0
1.0
1.0
1.0
1.0
1.0
1.0
1.0
1.0
1.0
1.0
1.0
1.0
1.0
1.0
1.0
1.0
1.0
1.0
1.0
1.0
1.0
1.0
1.0
1.0
1.0
1.0
1.0
1.0
1.0
1.0
1.0
1.0
1.0
1.0
1.0
1.0
1.0
1.0
1.0
1.0
1.0
1.0
1.0

VECTORS normals float
-0.00022568028362002224 -0.0008897550287656486 0.001867287210188806
-0.00041008330299519 -0.0015950833912938833 0.0037786562461405993
-0.0004114889306947589 -0.0013327779015526175 0.003817135933786631
-0.0004941182560287416 -0.001184395281597972 0.0038024922832846646
-0.00050858169561252 -0.0011362797813490033 0.0037410936783999205
-0.00037636776687577367 -0.0013374283444136381 0.0035634611267596488
-0.00013244299043435603 -0.001593975583091378 0.003359995549544692
0.00010425192886032163 -0.0015922383172437549 0.003276970237493515
0.00024776963982731104 -0.0015529523370787501 0.003211454255506396
0.00029544899007305503 -0.0015875744866207242 0.0031114742159843445
0.00027896405663341284 -0.001515793614089489 0.0030611108522862196
0.00022802104649599642 -0.0014201700687408447 0.0030218653846532106
0.00016584688273724169 -0.001400774926878512 0.002947073895484209
0.00010907424439210443 -0.0014173679519444704 0.002855501137673855
6.713013135595247e-5 -0.0014048898592591286 0.002777484245598316
4.280570647097193e-5 -0.0013432521373033524 0.002722390927374363
3.3935823012143373e-5 -0.0012525756610557437 0.002680838806554675
3.555617877282202e-5 -0.0011723526986315846 0.002634411910548806
4.251242717145942e-5 -0.0011309406254440546 0.0025698873214423656
5.1016584620811045e-5 -0.001127568306401372 0.0024876242969185114
5.867081563337706e-5 -0.0011396735208109021 0.0023981439881026745
6.413481605704874e-5 -0.0011429376900196075 0.0023127866443246603
6.685699190711603e-5 -0.001126214163377881 0.0022367495112121105
6.685387052129954e-5 -0.0010906559182330966 0.0021694949828088284
6.452756497310475e-5 -0.001042308402247727 0.00210820441134274
6.0515933000715456e-5 -0.0009876431431621313 0.002049859846010804
5.557234908337704e-5 -0.0009325433638878167 0.001991717843338847
5.047163722338155e-5 -0.0008820584043860434 0.001931424019858241
4.5931661588838324e-5 -0.000840191962197423 0.0018671111902222037
4.24893842136953e-5 -0.0008091829367913306 0.001797735458239913
4.035446181660518e-5 -0.0007884928490966558 0.0017235480481758716
3.940596798202023e-5 -0.0007749766227789223 0.001646015327423811
3.931512765120715e-5 -0.000764099124353379 0.0015672520967200398
3.966056101489812e-5 -0.0007510259747505188 0.0014895128551870584
4.001240085926838e-5 -0.0007313917740248144 0.001414833008311689
3.999012187705375e-5 -0.0007018010364845395 0.0013447959208860993
3.9298683986999094e-5 -0.0006604984519071877 0.0012802202254533768
3.774720971705392e-5 -0.0006093323463574052 0.0012202438665553927
3.52538627339527e-5 -0.0005548032349906862 0.0011618358548730612
3.184030356351286e-5 -0.000505724863614887 0.0011008860310539603
2.7618556487141177e-5 -0.00047003323561511934 0.0010336939012631774
2.2772850570618175e-5 -0.0004531329905148596 0.0009577391319908202
1.7538583051646128e-5 -0.000459436298115179 0.0008709644316695632
1.2180190424260218e-5 -0.0004943946842104197 0.0007708276389166713
6.969491550989915e-6 -0.0005613475223071873 0.0006557715823873878
2.165645810237038e-6 -0.0006566502852365375 0.000527495751157403
-2.002310793614015e-6 -0.0007684166776016355 0.00039154276601038873
-5.3496896725846455e-6 -0.0008783119264990091 0.0002564623428042978
-7.746687515464146e-6 -0.0009649508283473552 0.00013222653069533408
-9.125015822064597e-6 -0.0010077828774228692 2.8418167858035304e-5
-4.777483354700962e-6 -0.0005079260445199907 -8.631138371129055e-6

CELL_DATA 50

VECTORS liftinglineloading               float
0.0421488918364048 -0.052635874599218375 -0.030389336869120598
-0.016047222539782524 -0.0029052188619971275 -0.0016773288371041415
0.05128846317529679 -0.05686023086309433 -0.03282827138900757
0.09610782563686371 -0.09352409094572067 -0.05399616062641144
-0.06969738006591797 -0.14928337931632996 -0.08618880063295364
-0.6224721670150757 -0.2702043056488037 -0.15600252151489258
-1.3484493494033813 -0.4768724739551545 -0.27532243728637695
-2.2929768562316895 -0.6774911880493164 -0.39114972949028015
-3.380704641342163 -0.8836045265197754 -0.5101493000984192
-4.433532238006592 -1.0667333602905273 -0.6158787608146667
-5.279786586761475 -1.1862705945968628 -0.6848936676979065
-6.188546657562256 -1.3303591012954712 -0.7680832147598267
-7.1212682723999015 -1.4447919130325317 -0.8341509699821471
-7.159289360046387 -1.415833830833435 -0.8174320459365845
-7.439338207244873 -1.3973197937011719 -0.8067429661750793
-7.9910125732421875 -1.4137576818466187 -0.8162333965301514
-8.215600967407227 -1.3908984661102295 -0.8030356168746948
-8.613211631774902 -1.3831740617752075 -0.7985758781433105
-8.891754150390625 -1.3727084398269653 -0.7925336360931396
-8.993887901306152 -1.3754547834396362 -0.7941191792488098
-9.335718154907227 -1.3671389818191528 -0.7893180847167969
-9.573219299316406 -1.3219242095947266 -0.7632132768630981
-9.535361289978027 -1.2701904773712158 -0.7333447933197021
-9.6142578125 -1.2418540716171265 -0.7169848084449768
-9.74173641204834 -1.2100412845611572 -0.698617696762085
-9.930049896240234 -1.1860805749893188 -0.684783935546875
-10.169393539428711 -1.1595664024353027 -0.6694759726524353
-10.423866271972656 -1.1240487098693848 -0.648969829082489
-10.69315242767334 -1.087653636932373 -0.6279571056365967
-10.990274429321289 -1.0494288206100464 -0.6058880090713501
-11.108781814575195 -1.003986120223999 -0.5796516537666321
-11.664790153503418 -0.9817640781402589 -0.5668217539787292
-11.725334167480469 -0.9280756115913391 -0.535824716091156
-11.733708381652832 -0.891060769557953 -0.514454185962677
-11.744662284851074 -0.8591188788414003 -0.49601250886917114
-11.698444366455078 -0.8287237286567688 -0.4784638583660126
-11.600540161132812 -0.8112227916717529 -0.46835970878601074
-11.451249122619629 -0.7977154850959778 -0.4605612754821777
-11.25609016418457 -0.7780818939208984 -0.44922578334808355
-10.883203506469727 -0.7583096027374268 -0.4378102421760559
-10.583878517150879 -0.7361279129981995 -0.42500367760658264
-9.949355125427246 -0.707490861415863 -0.4084700345993042
-8.991388320922852 -0.7973252534866333 -0.46033594012260437
-7.681936264038087 -0.8514696955680848 -0.4915962815284729
-6.60666847229004 -0.997790277004242 -0.576074481010437
-5.539764881134033 -1.0508601665496826 -0.6067144274711609
-4.709225177764893 -1.0843778848648071 -0.6260659098625183
-3.7638089656829834 -1.1217591762542725 -0.6476479768753052
-2.8622918128967285 -1.1426150798797607 -0.6596890687942505
-1.5424609184265137 -1.1921159029006958 -0.6882684230804443