# vtk DataFile Version 4.0
 
ASCII
DATASET UNSTRUCTURED_GRID
POINTS 51 float
0.0029255072586238384 -0.007142488844692708 0.0025466219522058964
0.0024741466622799635 -0.01112933550029993 0.0014426487032324076
0.0021053405944257975 -0.015138954855501652 0.0007172345067374408
0.0016511689173057675 -0.01911049336194992 0.00014326605014503002
0.001117104198783636 -0.023039739578962326 -0.0002949770714621991
0.0006340054678730667 -0.026873635128140453 -0.0007955000037327409
0.0003643686359282583 -0.030522871762514114 -0.0016916196327656507
0.0003691194870043546 -0.03404511883854866 -0.00276810466311872
0.000572872522752732 -0.03753022104501724 -0.0036896369419991966
0.0008646587957628071 -0.0409097820520401 -0.004711497575044632
0.0011637704446911812 -0.04420998692512512 -0.005735944490879774
0.001422586850821972 -0.04746542125940323 -0.006633915472775698
0.0016198125667870045 -0.050655119121074677 -0.007483650930225849
0.0017542806454002857 -0.053756508976221085 -0.00836939550936222
0.001837961026467383 -0.05677160620689393 -0.00928361527621746
0.0018885409226641061 -0.05971499904990196 -0.010171878151595592
0.001923572504892945 -0.06260018050670624 -0.010983829386532307
0.0019564125686883926 -0.06543023139238358 -0.011707925237715244
0.0019946848042309284 -0.06819611042737961 -0.01237799134105444
0.002041437430307269 -0.07088469713926315 -0.013042930513620377
0.00209671794436872 -0.07348737120628357 -0.013734924606978893
0.002158778952434659 -0.07600392401218414 -0.01445478294044733
0.002224987605586648 -0.0784396082162857 -0.015182849951088428
0.002292493125423789 -0.08080058544874191 -0.015896176919341087
0.0023586952593177557 -0.08309146016836166 -0.016577566042542458
0.0024215481244027615 -0.08531492948532104 -0.01721695065498352
0.0024797271471470594 -0.08747190237045288 -0.01781093329191208
0.0025326928589493036 -0.08956171572208405 -0.01836198754608631
0.0025806704070419073 -0.09158240258693695 -0.01887747272849083
0.002624556189402938 -0.09353100508451462 -0.019368400797247887
0.0026656491681933403 -0.09540427476167679 -0.019846905022859573
0.0027052650693804026 -0.09719957411289215 -0.02032284624874592
0.002744461176916957 -0.09891544282436371 -0.02080165594816208
0.002783895470201969 -0.10055182874202728 -0.021283527836203575
0.0028237823862582445 -0.10211003571748732 -0.02176358737051487
0.0028639202937483788 -0.10359251499176025 -0.022232722491025925
0.0029037625063210726 -0.1050025001168251 -0.02267882227897644
0.0029425176326185465 -0.10634344071149827 -0.023089034482836723
0.002979256911203265 -0.10761752724647522 -0.023455185815691948
0.0030130252707749605 -0.10882449150085449 -0.0237782821059227
0.003042937722057104 -0.10996148735284805 -0.024068936705589294
0.003068262478336692 -0.11102371662855148 -0.024345068261027336
0.003088483354076743 -0.11200524121522903 -0.024628814309835434
0.0031033395789563656 -0.11289873719215393 -0.024947497993707657
0.0031128437258303165 -0.1136951744556427 -0.025334876030683517
0.003117278451099992 -0.11438531428575516 -0.02582539059221745
0.0031171750742942095 -0.11496219038963316 -0.02644502744078636
0.003113273996859789 -0.11542336642742157 -0.027202894911170006
0.0031064755748957396 -0.11577235907316208 -0.028085894882678982
0.003097780514508486 -0.11601892858743668 -0.02905755490064621
0.0030882256105542183 -0.11617832630872728 -0.030060971155762672

CELLS 50 150
2 0 1
2 1 2
2 2 3
2 3 4
2 4 5
2 5 6
2 6 7
2 7 8
2 8 9
2 9 10
2 10 11
2 11 12
2 12 13
2 13 14
2 14 15
2 15 16
2 16 17
2 17 18
2 18 19
2 19 20
2 20 21
2 21 22
2 22 23
2 23 24
2 24 25
2 25 26
2 26 27
2 27 28
2 28 29
2 29 30
2 30 31
2 31 32
2 32 33
2 33 34
2 34 35
2 35 36
2 36 37
2 37 38
2 38 39
2 39 40
2 40 41
2 41 42
2 42 43
2 43 44
2 44 45
2 45 46
2 46 47
2 47 48
2 48 49
2 49 50

CELL_TYPES 50
4
4
4
4
4
4
4
4
4
4
4
4
4
4
4
4
4
4
4
4
4
4
4
4
4
4
4
4
4
4
4
4
4
4
4
4
4
4
4
4
4
4
4
4
4
4
4
4
4
4

POINT_DATA 51

SCALARS zone float
LOOKUP_TABLE default
1.0
1.0
1.0
1.0
1.0
1.0
1.0
1.0
1.0
1.0
1.0
1.0
1.0
1.0
1.0
1.0
1.0
1.0
1.0
1.0
1.0
1.0
1.0
1.0
1.0
1.0
1.0
1.0
1.0
1.0
1.0
1.0
1.0
1.0
1.0
1.0
1.0
1.0
1.0
1.0
1.0
1.0
1.0
1.0
1.0
1.0
1.0
1.0
1.0
1.0
1.0

VECTORS normals float
-0.00022568028362002224 -0.0019934233278036118 -0.0005519866244867444
-0.00041008330299519 -0.00399823347106576 -0.0009146936936303973
-0.0004114889306947589 -0.003990579396486282 -0.0006496913265436888
-0.0004941182560287416 -0.00395039189606905 -0.0005061057745479047
-0.00050858169561252 -0.0038815708830952644 -0.00046938302693888545
-0.00037636776687577367 -0.003741566091775894 -0.0006983212660998106
-0.00013244299043435603 -0.003585740691050887 -0.0009863023879006505
0.00010425192886032163 -0.0035036751069128513 -0.0009990086546167731
0.00024776963982731104 -0.0034323323052376513 -0.0009716963395476341
0.00029544899007305503 -0.0033398834057152267 -0.0010231537744402885
0.00027896405663341284 -0.003277820302173495 -0.0009612089488655329
0.00022802104649599642 -0.003222566330805421 -0.0008738531032577156
0.00016584688273724169 -0.0031455433927476406 -0.0008677399600856007
0.00010907424439210443 -0.003058243077248335 -0.0008999824058264494
6.713013135595247e-5 -0.0029792445711791515 -0.0009012413793243468
4.280570647097193e-5 -0.0029142850544303656 -0.0008501068223267794
3.3935823012143373e-5 -0.0028576182667165995 -0.0007680234266445041
3.555617877282202e-5 -0.0027979661244899035 -0.0006970812100917101
4.251242717145942e-5 -0.0027272305451333523 -0.0006675028125755489
5.1016584620811045e-5 -0.0026456317864358425 -0.000678466516546905
5.867081563337706e-5 -0.0025596132036298513 -0.0007059260387904942
6.413481605704874e-5 -0.002476119203492999 -0.0007239627302624285
6.685699190711603e-5 -0.002398333279415965 -0.0007206969894468784
6.685387052129954e-5 -0.002325925976037979 -0.0006973575800657272
6.452756497310475e-5 -0.0022571710869669914 -0.0006603875663131475
6.0515933000715456e-5 -0.0021902204025536776 -0.0006166842649690807
5.557234908337704e-5 -0.0021233935840427876 -0.0005725177470594645
5.047163722338155e-5 -0.0020552491769194603 -0.0005332697182893753
4.5931661588838324e-5 -0.0019846432842314243 -0.000503207091242075
4.24893842136953e-5 -0.0019109370186924934 -0.0004847161762882024
4.035446181660518e-5 -0.0018342838156968355 -0.0004772229003719986
3.940596798202023e-5 -0.0017555819358676672 -0.0004773754335474223
3.931512765120715e-5 -0.001676126499660313 -0.0004803402407560498
3.966056101489812e-5 -0.0015972980763763191 -0.00048096501268446445
4.001240085926838e-5 -0.0015203433576971292 -0.0004745970945805311
3.999012187705375e-5 -0.0014462319668382406 -0.00045761774526908994
3.9298683986999094e-5 -0.0013754651881754398 -0.00042815608321689064
3.774720971705392e-5 -0.0013075150782242417 -0.0003881820884998888
3.52538627339527e-5 -0.0012405255110934377 -0.00034462386975064874
3.184030356351286e-5 -0.0011719792382791638 -0.00030687489197589457
2.7618556487141177e-5 -0.0010996101191267371 -0.0002833933103829622
2.2772850570618175e-5 -0.0010218746028840542 -0.00027993920957669616
1.7538583051646128e-5 -0.000937512784730643 -0.0003012150409631431
1.2180190424260218e-5 -0.000844967784360051 -0.0003530308895278722
6.969491550989915e-6 -0.0007432859274558723 -0.0004389458626974374
2.165645810237038e-6 -0.0006335080252029002 -0.0005550755886361003
-2.002310793614015e-6 -0.0005190285155549645 -0.0006887520430609584
-5.3496896725846455e-6 -0.000405083381338045 -0.0008204341866075993
-7.746687515464146e-6 -0.0002977796539198607 -0.0009273301693610848
-9.125015822064597e-6 -0.00020298610616009685 -0.000987537670880556
-4.777483354700962e-6 -7.970042497618124e-5 -0.0005017083021812141

CELL_DATA 50

VECTORS liftinglineloading               float
0.020046768710017204 0.011423944495618343 -0.03138703107833862
0.0005164113827049732 0.007105915807187557 -0.019523343071341515
0.05201451107859612 0.027855928987264637 -0.07653353363275528
0.03466606140136719 0.04223804175853729 -0.11604806035757066
-0.17656685411930084 0.07037407159805298 -0.19335117936134338
-0.7467572093009949 0.11780743300914763 -0.3236732482910156
-1.45476496219635 0.19585071504116058 -0.5380954146385193
-2.342066764831543 0.27048879861831665 -0.7431618571281433
-3.368467330932617 0.34844091534614563 -0.9573335647583009
-4.351132392883301 0.4174388647079468 -1.1469038724899292
-5.137441635131836 0.46219983696937567 -1.269883632659912
-6.081333160400391 0.5204594135284424 -1.429950475692749
-7.019139289855956 0.566021203994751 -1.5551304817199707
-7.094212055206299 0.5562059879302979 -1.5281634330749512
-7.411083221435547 0.5500314831733704 -1.5111991167068481
-7.922680377960206 0.5554730296134949 -1.5261496305465698
-8.197005271911621 0.5478830933570862 -1.5052964687347412
-8.640026092529297 0.5455742478370667 -1.498952865600586
-8.94227409362793 0.541883647441864 -1.4888131618499756
-9.054488182067871 0.5434043407440186 -1.4929910898208618
-9.408254623413086 0.54002445936203 -1.4837050437927246
-9.680841445922852 0.5226304531097412 -1.4359153509140015
-9.682801246643066 0.5023322701454163 -1.3801466226577759
-9.81021499633789 0.49136754870414734 -1.350021243095398
-9.935150146484375 0.47810712456703186 -1.3135885000228882
-10.15355110168457 0.46810421347618103 -1.286105751991272
-10.421204566955566 0.4570280909538269 -1.2556743621826172
-10.685273170471191 0.4429202377796173 -1.2169133424758911
-10.98335075378418 0.4280513823032379 -1.1760615110397339
-11.307621955871582 0.4121781289577484 -1.1324501037597656
-11.452268600463867 0.39299318194389343 -1.0797399282455444
-12.009456634521484 0.38283345103263855 -1.0518263578414917
-12.066165924072266 0.3602396249771118 -0.9897502064704894
-12.10453987121582 0.3453271985054016 -0.9487786889076233
-12.115212440490723 0.3330686092376709 -0.9150984883308411
-12.071955680847168 0.32158181071281433 -0.8835387229919434
-11.98604679107666 0.31520286202430725 -0.8660127520561218
-11.841752052307129 0.31034013628959656 -0.8526524901390075
-11.652948379516602 0.30284836888313293 -0.8320690393447877
-11.269746780395508 0.29563117027282715 -0.812239944934845
-10.96501636505127 0.2873115837574005 -0.7893821001052856
-10.311394691467285 0.27788904309272766 -0.7634938955307007
-9.314191818237305 0.31443047523498535 -0.8638906478881836
-7.982555389404297 0.3372187614440918 -0.926500916481018
-6.879302978515625 0.3976576626300812 -1.0925554037094116
-5.686681747436523 0.4180265367031097 -1.148518443107605
-4.8404340744018555 0.43157657980918884 -1.1857469081878662
-3.79226303100586 0.44409048557281494 -1.2201285362243652
-2.887342929840088 0.45254129171371454 -1.2433470487594604
-1.5584315061569214 0.47231426835060114 -1.2976727485656738