# vtk DataFile Version 4.0
 
ASCII
DATASET UNSTRUCTURED_GRID
POINTS 51 float
0.0029255072586238384 -0.002010692609474063 0.0073114666156470776
0.0024741466622799635 -0.0052017755806446075 0.009944086894392967
0.0021053405944257975 -0.008095824159681797 0.01281249523162842
0.0016511689173057675 -0.0108439726755023 0.015736574307084084
0.001117104198783636 -0.013456682674586773 0.01870385743677616
0.0006340054678730667 -0.016065720468759537 0.021557314321398735
0.0003643686359282583 -0.018892893567681313 0.024032600224018097
0.0003691194870043546 -0.02179497480392456 0.02630040794610977
0.000572872522752732 -0.02454882487654686 0.028626669198274616
0.0008646587957628071 -0.027324318885803223 0.03080892749130726
0.0011637704446911812 -0.030056418851017952 0.032924700528383255
0.001422586850821972 -0.03265923261642456 0.035076338797807693
0.0016198125667870045 -0.0351848304271698 0.03720179945230484
0.0017542806454002857 -0.03768927603960037 0.03923426568508148
0.001837961026467383 -0.04016754776239395 0.04117971286177635
0.0018885409226641061 -0.04258343204855919 0.043081313371658325
0.001923572504892945 -0.04490341246128082 0.044978998601436615
0.0019564125686883926 -0.04711981117725372 0.04688192158937454
0.0019946848042309284 -0.049255140125751495 0.04876325652003288
0.002041437430307269 -0.051341935992240906 0.050584226846694946
0.00209671794436872 -0.05340161547064782 0.052319303154945374
0.002158778952434659 -0.055434722453355796 0.053967844694852836
0.002224987605586648 -0.05742817372083664 0.055545441806316376
0.002292493125423789 -0.059366699308156974 0.05707029625773429
0.0023586952593177557 -0.0612388513982296 0.05855604261159897
0.0024215481244027615 -0.0630379319190979 0.06001066416501999
0.0024797271471470594 -0.064761683344841 0.061436858028173454
0.0025326928589493036 -0.06641174852848053 0.06283266097307205
0.0025806704070419073 -0.06799302995204926 0.06419223546981812
0.002624556189402938 -0.06951284408569336 0.06550685316324234
0.0026656491681933403 -0.0709792748093605 0.0667668879032135
0.0027052650693804026 -0.07239888608455658 0.06796452403068542
0.002744461176916957 -0.0737752839922905 0.06909544765949249
0.002783895470201969 -0.075108602643013 0.07015950232744217
0.0028237823862582445 -0.07639559358358383 0.07116056233644485
0.0028639202937483788 -0.07763020694255829 0.07210585474967957
0.0029037625063210726 -0.0788043662905693 0.07300497591495514
0.0029425176326185465 -0.07990952581167221 0.07386812567710876
0.002979256911203265 -0.08094024658203125 0.07470177859067917
0.0030130252707749605 -0.08189719170331955 0.07550514489412308
0.003042937722057104 -0.08278743922710419 0.07626980543136597
0.003068262478336692 -0.08362289518117905 0.0769815444946289
0.003088483354076743 -0.08441831171512604 0.07762281596660614
0.0031033395789563656 -0.08519185334444046 0.07817193865776062
0.0031128437258303165 -0.08596599102020264 0.0786021426320076
0.003117278451099992 -0.0867636427283287 0.07888612896203995
0.0031171750742942095 -0.08760210126638412 0.07900326699018478
0.003113273996859789 -0.08848743140697479 0.07894635200500488
0.0031064755748957396 -0.08941091597080231 0.07872575521469116
0.003097780514508486 -0.09034828096628189 0.07837041467428207
0.0030882256105542183 -0.09126165509223938 0.07792545109987259

CELLS 50 150
2 0 1
2 1 2
2 2 3
2 3 4
2 4 5
2 5 6
2 6 7
2 7 8
2 8 9
2 9 10
2 10 11
2 11 12
2 12 13
2 13 14
2 14 15
2 15 16
2 16 17
2 17 18
2 18 19
2 19 20
2 20 21
2 21 22
2 22 23
2 23 24
2 24 25
2 25 26
2 26 27
2 27 28
2 28 29
2 29 30
2 30 31
2 31 32
2 32 33
2 33 34
2 34 35
2 35 36
2 36 37
2 37 38
2 38 39
2 39 40
2 40 41
2 41 42
2 42 43
2 43 44
2 44 45
2 45 46
2 46 47
2 47 48
2 48 49
2 49 50

CELL_TYPES 50
4
4
4
4
4
4
4
4
4
4
4
4
4
4
4
4
4
4
4
4
4
4
4
4
4
4
4
4
4
4
4
4
4
4
4
4
4
4
4
4
4
4
4
4
4
4
4
4
4
4

POINT_DATA 51

SCALARS zone float
LOOKUP_TABLE default
1.0
1.0
1.0
1.0
1.0
1.0
1.0
1.0
1.0
1.0
1.0
1.0
1.0
1.0
1.0
1.0
1.0
1.0
1.0
1.0
1.0
1.0
1.0
1.0
1.0
1.0
1.0
1.0
1.0
1.0
1.0
1.0
1.0
1.0
1.0
1.0
1.0
1.0
1.0
1.0
1.0
1.0
1.0
1.0
1.0
1.0
1.0
1.0
1.0
1.0
1.0

VECTORS normals float
-0.00022568028362002224 -0.0015955416020005944 0.0013163102557882667
-0.00041008330299519 -0.0030425656586885452 0.00275051430799067
-0.0004114889306947589 -0.0028210983145982027 0.002896243706345558
-0.0004941182560287416 -0.0026804294902831316 0.0029456813354045153
-0.00050858169561252 -0.0026108736637979746 0.0029103695414960384
-0.00037636776687577367 -0.00271810544654727 0.0026643709279596806
-0.00013244299043435603 -0.002864627866074443 0.002371547045186162
0.00010425192886032163 -0.00282796542160213 0.0022970347199589014
0.00024776963982731104 -0.002764672040939331 0.002254260005429387
0.00029544899007305503 -0.002753796987235546 0.0021490154322236776
0.00027896405663341284 -0.002667456865310669 0.002133706584572792
0.00022802104649599642 -0.0025642067193984985 0.0021385501604527235
0.00016584688273724169 -0.0025150205474346876 0.002078962977975607
0.00010907424439210443 -0.002491358434781432 0.001988957403227687
6.713013135595247e-5 -0.002447078237310052 0.0019235234940424564
4.280570647097193e-5 -0.0023679318837821484 0.0018996413564309478
3.3935823012143373e-5 -0.0022681904956698418 0.0019003036431968212
3.555617877282202e-5 -0.0021758629009127617 0.001892130356281996
4.251242717145942e-5 -0.0021110614761710167 0.0018511526286602018
5.1016584620811045e-5 -0.002073239302262664 0.0017780223861336708
5.867081563337706e-5 -0.0020463946275413036 0.001691809855401516
6.413481605704874e-5 -0.0020132791250944138 0.0016130701405927537
6.685699190711603e-5 -0.001965987728908658 0.0015512247337028384
6.685387052129954e-5 -0.0019053382566198707 0.0015052991220727563
6.452756497310475e-5 -0.0018356179352849722 0.0014701836043968797
6.0515933000715456e-5 -0.0017614169046282766 0.0014404079411178827
5.557234908337704e-5 -0.0016869077226147056 0.0014109995681792498
5.047163722338155e-5 -0.0016156714409589765 0.0013776905834674835
4.5931661588838324e-5 -0.0015505477786064148 0.0013370970264077187
4.24893842136953e-5 -0.001493124640546739 0.0012873262166976929
4.035446181660518e-5 -0.0014430200681090355 0.0012288335710763931
3.940596798202023e-5 -0.0013980035437271 0.0011642772005870938
3.931512765120715e-5 -0.0013548583956435323 0.0010974905453622341
3.966056101489812e-5 -0.0013101559597998857 0.0010325597831979394
4.001240085926838e-5 -0.0012608002871274948 0.0009731746395118533
3.999012187705375e-5 -0.0012043830938637257 0.0009222051012329757
3.9298683986999094e-5 -0.0011396593181416392 0.0008811348234303296
3.774720971705392e-5 -0.0010679400293156505 0.0008484015706926585
3.52538627339527e-5 -0.0009938355069607496 0.0008185108890756964
3.184030356351286e-5 -0.0009235969046130776 0.0007840130128897727
2.7618556487141177e-5 -0.0008628526702523232 0.0007382001494988799
2.2772850570618175e-5 -0.0008154360111802816 0.0006765041616745293
1.7538583051646128e-5 -0.0007844761712476611 0.000595195684581995
1.2180190424260218e-5 -0.0007738395943306386 0.0004896668833680451
6.969491550989915e-6 -0.0007858946919441223 0.00035709518124349415
2.165645810237038e-6 -0.0008180565782822669 0.00020056110224686563
-2.002310793614015e-6 -0.0008618951542302966 3.011133594554849e-5
-5.3496896725846455e-6 -0.0009044065955094993 -0.00013875683362130076
-7.746687515464146e-6 -0.0009304237901233137 -0.00028796790866181254
-9.125015822064597e-6 -0.0009253715397790074 -0.00040015185368247336
-4.777483354700962e-6 -0.0004566896823234856 -0.0002224813069915399

CELL_DATA 50

VECTORS liftinglineloading               float
0.008168986067175865 -0.008588628843426704 -0.012265834026038647
0.014242285862565039 -0.020816847681999207 -0.029729539528489116
0.044916391372680664 -0.04844949021935463 -0.0691930428147316
0.0030995390843600035 -0.07460791617631912 -0.1065511405467987
-0.24606552720069882 -0.1284400373697281 -0.18343137204647064
-0.8371981978416443 -0.20978282392024994 -0.2996009290218353
-1.571862816810608 -0.33991414308547974 -0.4854477047920227
-2.459188222885132 -0.4634167551994324 -0.6618276834487915
-3.505464792251587 -0.5954614877700806 -0.8504071235656737
-4.490287780761719 -0.7105916738510132 -1.0148301124572754
-5.2727789878845215 -0.7847440838813782 -1.1207307577133179
-6.2001824378967285 -0.8812077641487122 -1.2584950923919678
-7.114306926727295 -0.9553704857826233 -1.3644105195999146
-7.1590752601623535 -0.9362581968307496 -1.3371152877807617
-7.467883586883545 -0.9254800081253052 -1.3217225074768066
-7.963490009307861 -0.933479130268097 -1.333146333694458
-8.224092483520508 -0.9197717308998108 -1.3135701417922974
-8.650217056274414 -0.9149924516677856 -1.3067445755004883
-8.96078872680664 -0.9086116552352905 -1.297631859779358
-9.070662498474121 -0.9111692309379577 -1.3012845516204834
-9.423099517822266 -0.905210018157959 -1.292773962020874
-9.665740966796875 -0.8755055069923401 -1.2503514289855957
-9.630085945129395 -0.8408696055412291 -1.2008862495422363
-9.729034423828125 -0.8223245739936829 -1.1744011640548706
-9.835847854614258 -0.8004500269889832 -1.1431610584259033
-10.014760971069336 -0.7841649055480957 -1.119903564453125
-10.258795738220215 -0.7663023471832275 -1.0943931341171265
-10.488872528076172 -0.7429866194725037 -1.061094880104065
-10.763057708740234 -0.7187936902046204 -1.0265437364578247
-11.07087230682373 -0.6931994557380676 -0.9899914264678954
-11.197495460510254 -0.6626712083816528 -0.9463925957679749
-11.75998592376709 -0.6472419500350952 -0.924357295036316
-11.824207305908203 -0.6109132170677185 -0.8724745512008666
-11.871843338012695 -0.5855275392532349 -0.8362199664115906
-11.892765998840332 -0.5643784999847412 -0.8060159683227539
-11.857664108276367 -0.5444005727767944 -0.7774845957756042
-11.769883155822754 -0.5331323146820068 -0.7613918781280518
-11.629137992858887 -0.5244450569152832 -0.7489851713180542
-11.440962791442871 -0.5115928053855896 -0.7306302189826965
-11.064451217651367 -0.49895477294921875 -0.7125812768936157
-10.761439323425293 -0.48463925719261164 -0.6921365857124329
-10.114961624145508 -0.46720570325851435 -0.6672388911247253
-9.13422966003418 -0.5275561213493347 -0.7534282207489014
-7.809063434600831 -0.5644857883453369 -0.8061692714691162
-6.715716361999511 -0.663286030292511 -0.9472706317901612
-5.596789836883545 -0.6978669762611389 -0.996657371520996
-4.757119178771973 -0.7201746702194214 -1.0285160541534424
-3.802811622619629 -0.7450230717658997 -1.0640032291412354
-2.8923301696777344 -0.7589576840400696 -1.0839039087295532
-1.5592268705368042 -0.791817843914032 -1.1308330297470093