# vtk DataFile Version 4.0
 
ASCII
DATASET UNSTRUCTURED_GRID
POINTS 51 float
0.0029255072586238384 -0.0019144223770126698 -0.007337261922657491
0.0024741466622799635 -0.0004671735223382712 -0.011212719604372978
0.0021053405944257975 0.0006049416842870414 -0.015143858268857002
0.0016511689173057675 0.0015228684060275555 -0.01905025914311409
0.001117104198783636 0.0023019001819193363 -0.02292635664343834
0.0006340054678730667 0.003134664613753557 -0.0267020408064127
0.0003643686359282583 0.004345425870269537 -0.03025928884744644
0.0003691194870043546 0.005724798887968063 -0.03367430716753006
0.000572872522752732 0.006946571171283723 -0.03706583380699158
0.0008646587957628071 0.008259091526269913 -0.040343474596738815
0.0011637704446911812 0.009567271918058395 -0.04354183375835419
0.001422586850821972 0.01074555516242981 -0.04670661687850952
0.0016198125667870045 0.011870058253407478 -0.04981011897325516
0.0017542806454002857 0.013022735714912415 -0.05282250791788101
0.001837961026467383 0.014196259900927544 -0.05574645474553109
0.0018885409226641061 0.01533767580986023 -0.05860122665762901
0.001923572504892945 0.016397997736930847 -0.06140466034412383
0.0019564125686883926 0.017365993931889534 -0.06416083872318268
0.0019946848042309284 0.018274571746587753 -0.06685779243707657
0.002041437430307269 0.019171306863427162 -0.06947819143533707
0.00209671794436872 0.020087506622076035 -0.07201065123081207
0.002158778952434659 0.021023955196142197 -0.0744548887014389
0.002224987605586648 0.02196153812110424 -0.07681785523891449
0.002292493125423789 0.022877922281622887 -0.07910767197608948
0.0023586952593177557 0.02375638112425804 -0.08133044838905334
0.0024215481244027615 0.024587122723460197 -0.08348972350358963
0.0024797271471470594 0.02536683715879917 -0.08558671921491623
0.0025326928589493036 0.02609793283045292 -0.0876205563545227
0.0025806704070419073 0.026787571609020237 -0.08958861976861954
0.002624556189402938 0.027446463704109192 -0.09148702770471573
0.0026656491681933403 0.028086412698030472 -0.09331145882606506
0.0027052650693804026 0.028717013075947758 -0.09505844861268997
0.002744461176916957 0.02934354916214943 -0.09672605246305466
0.002783895470201969 0.0299662072211504 -0.09831421077251434
0.0028237823862582445 0.030580244958400726 -0.09982465207576752
0.0028639202937483788 0.03117680177092552 -0.10126060247421265
0.0029037625063210726 0.0317440927028656 -0.10262634605169295
0.0029425176326185465 0.032269615679979324 -0.1039264351129532
0.002979256911203265 0.03274541720747948 -0.10516376048326492
0.0030130252707749605 0.033172477036714554 -0.10633797198534012
0.003042937722057104 0.03356112167239189 -0.10744530707597731
0.003068262478336692 0.03392878174781799 -0.10847942531108858
0.003088483354076743 0.03429699316620827 -0.10943248122930527
0.0031033395789563656 0.03469233959913254 -0.11029481142759323
0.0031128437258303165 0.03514765575528145 -0.11105445027351378
0.003117278451099992 0.03569645434617996 -0.11169920861721039
0.0031171750742942095 0.03636401146650314 -0.11221988499164581
0.003113273996859789 0.03715918958187103 -0.1126132607460022
0.0031064755748957396 0.03806924447417259 -0.11288396269083023
0.003097780514508486 0.03905869647860527 -0.11304491013288498
0.0030882256105542183 0.04007218778133392 -0.11311624944210052

CELLS 50 150
2 0 1
2 1 2
2 2 3
2 3 4
2 4 5
2 5 6
2 6 7
2 7 8
2 8 9
2 9 10
2 10 11
2 11 12
2 12 13
2 13 14
2 14 15
2 15 16
2 16 17
2 17 18
2 18 19
2 19 20
2 20 21
2 21 22
2 22 23
2 23 24
2 24 25
2 25 26
2 26 27
2 27 28
2 28 29
2 29 30
2 30 31
2 31 32
2 32 33
2 33 34
2 34 35
2 35 36
2 36 37
2 37 38
2 38 39
2 39 40
2 40 41
2 41 42
2 42 43
2 43 44
2 44 45
2 45 46
2 46 47
2 47 48
2 48 49
2 49 50

CELL_TYPES 50
4
4
4
4
4
4
4
4
4
4
4
4
4
4
4
4
4
4
4
4
4
4
4
4
4
4
4
4
4
4
4
4
4
4
4
4
4
4
4
4
4
4
4
4
4
4
4
4
4
4

POINT_DATA 51

SCALARS zone float
LOOKUP_TABLE default
1.0
1.0
1.0
1.0
1.0
1.0
1.0
1.0
1.0
1.0
1.0
1.0
1.0
1.0
1.0
1.0
1.0
1.0
1.0
1.0
1.0
1.0
1.0
1.0
1.0
1.0
1.0
1.0
1.0
1.0
1.0
1.0
1.0
1.0
1.0
1.0
1.0
1.0
1.0
1.0
1.0
1.0
1.0
1.0
1.0
1.0
1.0
1.0
1.0
1.0
1.0

VECTORS normals float
-0.00022568028362002224 0.0007236244273371994 -0.0019377288408577442
-0.00041008330299519 0.0012596820015460253 -0.0039032979402691126
-0.0004114889306947589 0.0009950209641829133 -0.003918769769370556
-0.0004941182560287416 0.0008484792779199779 -0.0038912496529519554
-0.00050858169561252 0.0008058981038630009 -0.0038258908316493034
-0.00037636776687577367 0.0010217629605904222 -0.0036664656363427635
-0.00013244299043435603 0.001295067137107253 -0.0034861338790506124
0.00010425192886032163 0.0013005725340917706 -0.0034032731782644983
0.00024776963982731104 0.0012671462027356029 -0.0033345823176205163
0.00029544899007305503 0.0013103503733873367 -0.0032380004413425922
0.00027896405663341284 0.001243232167325914 -0.003181572537869215
0.00022802104649599642 0.0011513929348438978 -0.003134142141789198
0.00016584688273724169 0.0011385901598259807 -0.003057945054024458
0.00010907424439210443 0.0011631011730059981 -0.002968166721984744
6.713013135595247e-5 0.0011574701638892293 -0.0028893593698740005
4.280570647097193e-5 0.0011008685687556863 -0.0028291037306189537
3.3935823012143373e-5 0.0010141587117686868 -0.00277980649843812
3.555617877282202e-5 0.0009382874122820793 -0.0027265644166618586
4.251242717145942e-5 0.0009026565821841358 -0.002658675890415907
5.1016584620811045e-5 0.0009064667974598706 -0.002576432190835476
5.867081563337706e-5 0.0009263247484341264 -0.0024883474688977003
6.413481605704874e-5 0.0009370158077217638 -0.0024035992100834846
6.685699190711603e-5 0.0009269830188713968 -0.0023263939656317234
6.685387052129954e-5 0.0008974217344075441 -0.002256296342238784
6.452756497310475e-5 0.0008545999880880116 -0.002191025298088789
6.0515933000715456e-5 0.0008052278426475823 -0.002128138206899166
5.557234908337704e-5 0.0007554051117040217 -0.002065415261313319
5.047163722338155e-5 0.0007103672251105309 -0.0020009507425129414
4.5931661588838324e-5 0.0006742653204128146 -0.0019332338124513626
4.24893842136953e-5 0.000649420777335763 -0.001861419528722763
4.035446181660518e-5 0.000635275267995894 -0.0017857110360637307
3.940596798202023e-5 0.0006285679410211742 -0.0017072954215109346
3.931512765120715e-5 0.0006245964323170483 -0.0016278838738799093
3.966056101489812e-5 0.0006183484802022576 -0.0015493009705096483
4.001240085926838e-5 0.0006052977405488491 -0.0014731941046193242
3.999012187705375e-5 0.0005819237558171153 -0.0014008445432409644
3.9298683986999094e-5 0.0005464064888656139 -0.001332914805971086
3.774720971705392e-5 0.00050066236872226 -0.001268707332201302
3.52538627339527e-5 0.0004514314059633762 -0.0012057690182700753
3.184030356351286e-5 0.00040785188321024174 -0.0011407736456021667
2.7618556487141177e-5 0.0003781522682402283 -0.0010707264300435781
2.2772850570618175e-5 0.0003679362125694752 -0.000993587775155902
1.7538583051646128e-5 0.00038177845999598503 -0.0009076926507987083
1.2180190424260218e-5 0.00042533129453659063 -0.0008109837654046713
6.969491550989915e-6 0.0005020571406930685 -0.0007022008066996932
2.165645810237038e-6 0.0006081772153265774 -0.0005827192799188197
-2.002310793614015e-6 0.0007313674432225525 -0.000457024754723534
-5.3496896725846455e-6 0.0008526175515726209 -0.00033203637576662004
-7.746687515464146e-6 0.0009497546125203371 -0.00021582437329925597
-9.125015822064597e-6 0.0010014711879193783 -0.0001161440959549509
-4.777483354700962e-6 0.0005067455349490047 -3.567037856555544e-5

CELL_DATA 50

VECTORS liftinglineloading               float
0.040954843163490295 0.05401809141039849 0.025189049541950226
-0.017530322074890137 0.0017416272312402725 0.0008121341234073044
0.052871894091367715 0.060837116092443466 0.028368812054395676
0.0934414491057396 0.09855091571807861 0.04595504328608513
-0.07347912341356277 0.15736031532287598 0.07337832450866699
-0.6244681477546692 0.28324493765830994 0.13207928836345673
-1.3449159860610962 0.49835804104804987 0.2323881685733795
-2.2828164100646973 0.7074650526046753 0.32989639043807983
-3.360689163208008 0.9220364093780519 0.4299526214599609
-4.405194282531738 1.1130404472351074 0.5190193057060242
-5.244995594024658 1.237779140472412 0.577185869216919
-6.215557098388672 1.3955882787704468 0.6507734656333923
-7.148717880249024 1.5152310132980347 0.7065638303756714
-7.083266258239746 1.4751029014587402 0.6878517866134644
-7.487116813659667 1.466884732246399 0.6840195655822754
-7.970815658569336 1.4788860082626343 0.6896158456802368
-8.206164360046387 1.4559855461120605 0.6789371967315674
-8.612865447998047 1.4486563205718994 0.6755195260047913
-8.896439552307129 1.437975287437439 0.6705389022827148
-9.003018379211426 1.4410700798034668 0.6719819903373718
-9.34904956817627 1.4325926303863525 0.6680288910865784
-9.536921501159668 1.3835827112197876 0.6451752185821533
-9.51264476776123 1.3297111988067627 0.6200545430183411
-9.626079559326172 1.3013676404953003 0.6068376898765564
-9.750321388244629 1.2679322957992554 0.5912465453147888
-9.941411018371582 1.24272620677948 0.5794927477836609
-10.188733100891113 1.2147200107574463 0.5664332509040833
-10.410128593444824 1.1775044202804565 0.5490793585777283
-10.6756010055542 1.1392732858657837 0.5312519073486328
-10.970964431762695 1.0991495847702026 0.5125418901443481
-11.048501014709473 1.0531766414642334 0.4911043345928192
-11.614302635192871 1.0301669836044312 0.4803747534751892
-11.673269271850586 0.9745532274246215 0.454441636800766
-11.711774826049805 0.9344447255134583 0.43573871254920965
-11.722648620605469 0.9008578658103943 0.42007690668106085
-11.676393508911133 0.8688658475875854 0.40515878796577454
-11.578543663024902 0.8503594994544982 0.3965291678905487
-11.448984146118164 0.83550226688385 0.38960108160972595
-11.250788688659668 0.8149846792221069 0.38003361225128174
-10.875309944152832 0.7942934632301331 0.37038514018058777
-10.57336711883545 0.7710837721824646 0.3595622479915619
-9.936741828918457 0.7409265637397766 0.345499724149704
-8.977957725524902 0.8348491191864014 0.3892965316772461
-7.667195796966553 0.8913066387176514 0.41562309861183167
-6.591494083404542 1.043960690498352 0.48680686950683594
-5.4823150634765625 1.0966167449951172 0.5113608241081238
-4.658025741577148 1.1313645839691162 0.5275639891624451
-3.720512866973877 1.1702594757080078 0.5457009673118591
-2.8285720348358154 1.1919056177139282 0.5557947158813477
-1.5239741802215576 1.2437574863433838 0.5799736380577087