# vtk DataFile Version 4.0
 
ASCII
DATASET UNSTRUCTURED_GRID
POINTS 51 float
0.0029255072586238384 -0.004308459814637899 -0.006240000016987324
0.0024741466622799635 -0.004273975733667612 -0.01037672720849514
0.0021053405944257975 -0.0046110451221466064 -0.014437473379075527
0.0016511689173057675 -0.005084543954581022 -0.018422240391373634
0.001117104198783636 -0.005678197368979454 -0.022331025451421738
0.0006340054678730667 -0.006187014747411013 -0.026163829490542415
0.0003643686359282583 -0.006265921518206596 -0.029920652508735657
0.0003691194870043546 -0.006137740798294544 -0.03360149636864662
0.000572872522752732 -0.006149620283395052 -0.03720635920763016
0.0008646587957628071 -0.006037273444235325 -0.040735241025686264
0.0011637704446911812 -0.005901889875531197 -0.04418814182281494
0.001422586850821972 -0.005877085030078888 -0.04756506159901619
0.0016198125667870045 -0.00588185852393508 -0.05086600035429001
0.0017542806454002857 -0.005828993394970894 -0.054090958088636405
0.001837961026467383 -0.005726289004087448 -0.05723993852734566
0.0018885409226641061 -0.005630099214613438 -0.06031293421983719
0.001923572504892945 -0.005592553876340389 -0.06330995261669159
0.0019564125686883926 -0.005625604186207056 -0.06623098999261856
0.0019946848042309284 -0.0056942300871014595 -0.0690760463476181
0.002041437430307269 -0.005747805815190077 -0.07184511423110962
0.00209671794436872 -0.005753013305366039 -0.0745382085442543
0.002158778952434659 -0.00570901483297348 -0.07715532183647156
0.002224987605586648 -0.005636158399283886 -0.07969645410776138
0.002292493125423789 -0.0055582039058208466 -0.08216160535812378
0.0023586952593177557 -0.0054929545149207115 -0.08455078303813934
0.0024215481244027615 -0.005450830794870853 -0.08686397224664688
0.0024797271471470594 -0.005435353610664606 -0.08910118043422699
0.0025326928589493036 -0.005443960893899202 -0.09126240760087967
0.0025806704070419073 -0.005469031166285276 -0.09334765374660492
0.002624556189402938 -0.005499166436493397 -0.09535692632198334
0.0026656491681933403 -0.00552180502563715 -0.09729021042585373
0.0027052650693804026 -0.005526737775653601 -0.09914752095937729
0.002744461176916957 -0.005508342757821083 -0.10092884302139282
0.002783895470201969 -0.00546641880646348 -0.10263418406248094
0.0028237823862582445 -0.005406011827290058 -0.10426355153322218
0.0028639202937483788 -0.005336555186659098 -0.10581693798303606
0.0029037625063210726 -0.0052705868147313595 -0.10729433596134187
0.0029425176326185465 -0.005221414379775524 -0.10869576036930083
0.002979256911203265 -0.005197496619075537 -0.1100212037563324
0.0030130252707749605 -0.005197795107960701 -0.11127065867185593
0.003042937722057104 -0.005211320705711842 -0.11244414001703264
0.003068262478336692 -0.005219521466642618 -0.11354164034128189
0.003088483354076743 -0.005199480801820755 -0.11456315964460372
0.0031033395789563656 -0.005122911185026169 -0.11550869792699814
0.0031128437258303165 -0.004954865202307701 -0.11637825518846512
0.003117278451099992 -0.004659685771912336 -0.11717183142900467
0.0031171750742942095 -0.00421046931296587 -0.11788942664861679
0.003113273996859789 -0.0035977880470454693 -0.11853104084730147
0.0031064755748957396 -0.0028351987712085247 -0.11909667402505875
0.003097780514508486 -0.001960465917363763 -0.11958632618188858
0.0030882256105542183 -0.0010324957547709346 -0.11999999731779097

CELLS 50 150
2 0 1
2 1 2
2 2 3
2 3 4
2 4 5
2 5 6
2 6 7
2 7 8
2 8 9
2 9 10
2 10 11
2 11 12
2 12 13
2 13 14
2 14 15
2 15 16
2 16 17
2 17 18
2 18 19
2 19 20
2 20 21
2 21 22
2 22 23
2 23 24
2 24 25
2 25 26
2 26 27
2 27 28
2 28 29
2 29 30
2 30 31
2 31 32
2 32 33
2 33 34
2 34 35
2 35 36
2 36 37
2 37 38
2 38 39
2 39 40
2 40 41
2 41 42
2 42 43
2 43 44
2 44 45
2 45 46
2 46 47
2 47 48
2 48 49
2 49 50

CELL_TYPES 50
4
4
4
4
4
4
4
4
4
4
4
4
4
4
4
4
4
4
4
4
4
4
4
4
4
4
4
4
4
4
4
4
4
4
4
4
4
4
4
4
4
4
4
4
4
4
4
4
4
4

POINT_DATA 51

SCALARS zone float
LOOKUP_TABLE default
1.0
1.0
1.0
1.0
1.0
1.0
1.0
1.0
1.0
1.0
1.0
1.0
1.0
1.0
1.0
1.0
1.0
1.0
1.0
1.0
1.0
1.0
1.0
1.0
1.0
1.0
1.0
1.0
1.0
1.0
1.0
1.0
1.0
1.0
1.0
1.0
1.0
1.0
1.0
1.0
1.0
1.0
1.0
1.0
1.0
1.0
1.0
1.0
1.0
1.0
1.0

VECTORS normals float
-0.00022568028362002224 1.7242222384084016e-5 -0.002068363595753908
-0.00041008330299519 -0.0001512926392024383 -0.004098737146705389
-0.0004114889306947589 -0.0004052843141835183 -0.00402275612577796
-0.0004941182560287416 -0.0005335760652087629 -0.003946775570511818
-0.00050858169561252 -0.0005512352799996734 -0.0038707947824150324
-0.00037636776687577367 -0.00029386201640591025 -0.003794813994318247
-0.00013244299043435603 2.4636945454403758e-5 -0.003718833439052105
0.00010425192886032163 5.8150460972683504e-5 -0.0036428526509553194
0.00024776963982731104 5.023361154599115e-5 -0.003566872095689177
0.00029544899007305503 0.00012386527669150382 -0.0034908913075923915
0.00027896405663341284 8.009421435417607e-5 -0.003414910519495607
0.00022802104649599642 1.0015743100666441e-5 -0.003338929964229465
0.00016584688273724169 2.4045917598414235e-5 -0.003262949176132679
0.00010907424439210443 7.778471626807004e-5 -0.0031869683880358934
6.713013135595247e-5 9.944705379894003e-5 -0.0031109878327697515
4.280570647097193e-5 6.68676511850208e-5 -0.003035007044672966
3.3935823012143373e-5 2.247636075480841e-6 -0.0029590262565761805
3.555617877282202e-5 -5.0838167226174846e-5 -0.0028830457013100386
4.251242717145942e-5 -6.110099639045075e-5 -0.002807064913213253
5.1016584620811045e-5 -2.9391570933512412e-5 -0.0027310841251164675
5.867081563337706e-5 1.9395538402022794e-5 -0.0026551035698503256
6.413481605704874e-5 5.8427471230970696e-5 -0.00257912278175354
6.685699190711603e-5 7.54054999561049e-5 -0.002503142226487398
6.685387052129954e-5 7.160175300668925e-5 -0.0024271614383906126
6.452756497310475e-5 5.368652637116611e-5 -0.002351180650293827
6.0515933000715456e-5 2.880051033571362e-5 -0.002275200095027685
5.557234908337704e-5 3.4349538964306703e-6 -0.0021992193069308996
5.047163722338155e-5 -1.6838637748151086e-5 -0.002123238518834114
4.5931661588838324e-5 -2.7602796762948856e-5 -0.002047257963567972
4.24893842136953e-5 -2.6387031539343297e-5 -0.0019712771754711866
4.035446181660518e-5 -1.3785658666165546e-5 -0.0018952965037897231
3.940596798202023e-5 6.73123577143997e-6 -0.0018193157156929374
3.931512765120715e-5 3.015958463947754e-5 -0.0017433350440114737
3.966056101489812e-5 5.116535612614826e-5 -0.00166735437233001
4.001240085926838e-5 6.493178807431832e-5 -0.0015913737006485462
3.999012187705375e-5 6.771242624381557e-5 -0.0015153929125517607
3.9298683986999094e-5 5.757043982157484e-5 -0.001439412240870297
3.774720971705392e-5 3.654529064078815e-5 -0.0013634315691888332
3.52538627339527e-5 1.1809476745838765e-5 -0.0012874507810920477
3.184030356351286e-5 -6.912170647410676e-6 -0.001211470109410584
2.7618556487141177e-5 -1.0863128409255296e-5 -0.0011354894377291203
2.2772850570618175e-5 5.91989100939827e-6 -0.0010595087660476565
1.7538583051646128e-5 4.830521720577963e-5 -0.000983527977950871
1.2180190424260218e-5 0.00012230791617184877 -0.0009075473062694074
6.969491550989915e-6 0.00023161257558967918 -0.0008315665763802826
2.165645810237038e-6 0.00037219791556708515 -0.0007555859046988189
-2.002310793614015e-6 0.0005309489206410944 -0.0006796051748096943
-5.3496896725846455e-6 0.0006876352708786726 -0.0006036245031282306
-7.746687515464146e-6 0.0008186611230485141 -0.0005276437732391059
-9.125015822064597e-6 0.0009013515082187951 -0.0004516630724538117
-4.777483354700962e-6 0.0004639850230887532 -0.00020683636830653995

CELL_DATA 50

VECTORS liftinglineloading               float
0.0029564688447862864 0.006294254679232836 0.0005506759625859559
0.021024269983172417 0.044333212077617645 0.0038786535151302814
0.040323998779058456 0.08555422723293304 0.007485025096684693
-0.013305144384503365 0.13364610075950623 0.01169251836836338
-0.2833423912525177 0.2327609658241272 0.0203639455139637
-0.8829681873321533 0.3752480447292328 0.032829951494932175
-1.6331225633621216 0.6010327339172363 0.05258354917168618
-2.5255579948425293 0.8157535791397096 0.07136918604373932
-3.5881068706512456 1.0478154420852661 0.09167197346687317
-4.583299160003662 1.2492027282714844 0.10929108411073685
-5.375918388366699 1.3792108297348022 0.1206653118133545
-6.311834335327148 1.5481301546096802 0.13544383645057678
-7.233593940734863 1.6773362159729004 0.1467479020357132
-7.276080131530762 1.6425570249557497 0.1437051147222519
-7.608253479003906 1.6260188817977905 0.14225822687149048
-8.118193626403809 1.6402316093444824 0.1435016691684723
-8.48184871673584 1.6171566247940063 0.1414828598499298
-8.840323448181152 1.6003999710083008 0.1400168538093567
-9.10230541229248 1.5862905979156494 0.13878244161605835
-9.138618469238281 1.5882841348648071 0.13895685970783234
-9.425816535949707 1.5750125646591187 0.13779574632644653
-10.233390808105469 1.5431405305862427 0.13500730693340302
-10.139798164367676 1.4784177541732788 0.12934479117393494
-10.166787147521973 1.4413233995437622 0.12609945237636566
-10.192447662353516 1.3982065916061401 0.12232722342014313
-10.303759574890137 1.366951823234558 0.11959278583526611
-10.49963092803955 1.3341327905654907 0.1167214959859848
-10.699644088745117 1.293379783630371 0.11315606534481047
-10.93825626373291 1.2507658004760742 0.1094278320670128
-11.271566390991211 1.2042973041534424 0.10536236315965654
-11.355439186096191 1.1506167650222778 0.10066591948270798
-11.879754066467285 1.123457670211792 0.09828980267047882
-11.91326904296875 1.0603200197219849 0.09276598691940308
-11.936531066894531 1.0171194076538086 0.08898641169071198
-11.937902450561523 0.9810891747474669 0.08583417534828186
-11.897316932678223 0.946444272994995 0.0828031450510025
-11.79239273071289 0.9274035096168519 0.08113729953765869
-11.636356353759766 0.9126707315444946 0.07984834164381027
-11.433974266052246 0.890612006187439 0.07791845500469208
-11.045093536376953 0.8687846064567566 0.07600880414247513
-10.730513572692871 0.843997895717621 0.07384024560451508
-10.074746131896973 0.8131117820739745 0.07113806158304214
-9.089225769042969 0.9176021218299867 0.08027978241443634
-7.965907096862792 0.9822748303413391 0.08593790978193283
-6.847364902496337 1.157378911972046 0.10125753283500671
-5.707434177398682 1.2188293933868408 0.1066337525844574
-4.850551128387451 1.25787353515625 0.11004967242479324
-3.87978196144104 1.301324725151062 0.11385116726160048
-2.9524824619293213 1.3259201049804688 0.11600297689437865
-1.5933094024658203 1.3832589387893677 0.12101947516202927