# vtk DataFile Version 4.0
 
ASCII
DATASET UNSTRUCTURED_GRID
POINTS 51 float
0.0029255072586238384 -0.0053265695460140705 -0.005397044122219086
0.0024741466622799635 -0.006010944023728371 -0.009476913139224052
0.0021053405944257975 -0.007048034109175205 -0.013417436741292477
0.0016511689173057675 -0.00820628646761179 -0.017259443178772926
0.001117104198783636 -0.009469674900174141 -0.02100575715303421
0.0006340054678730667 -0.010636321268975735 -0.024691978469491005
0.0003643686359282583 -0.011366395279765129 -0.028378024697303772
0.0003691194870043546 -0.011879333294928074 -0.032025206834077835
0.000572872522752732 -0.012517009861767292 -0.035573240369558334
0.0008646587957628071 -0.013019153848290443 -0.03906801715493202
0.0011637704446911812 -0.013485416769981383 -0.04249197244644165
0.001422586850821972 -0.014047385193407534 -0.0458218976855278
0.0016198125667870045 -0.014625288546085356 -0.04907185956835747
0.0017542806454002857 -0.015133234672248363 -0.05225700139999389
0.001837961026467383 -0.015578904189169407 -0.055375974625349045
0.0018885409226641061 -0.016017796471714973 -0.05841898918151856
0.001923572504892945 -0.016501247882843018 -0.06137699633836746
0.0019564125686883926 -0.017041029408574104 -0.06424791365861893
0.0019946848042309284 -0.017602650448679924 -0.06703782826662064
0.002041437430307269 -0.01813625730574131 -0.06975553184747696
0.00209671794436872 -0.01860903576016426 -0.07240680605173111
0.002158778952434659 -0.019020164385437965 -0.07499179989099503
0.002224987605586648 -0.019389675930142403 -0.07750698179006577
0.002292493125423789 -0.01974097639322281 -0.07994821667671204
0.0023586952593177557 -0.020091593265533447 -0.08231242001056671
0.0024215481244027615 -0.02045178972184658 -0.08459778130054474
0.0024797271471470594 -0.020825035870075226 -0.08680369704961777
0.0025326928589493036 -0.021208805963397026 -0.08893059194087982
0.0025806704070419073 -0.02159559540450573 -0.09097980707883835
0.002624556189402938 -0.02197417803108692 -0.09295331686735153
0.0026656491681933403 -0.02233218401670456 -0.09485330432653427
0.0027052650693804026 -0.022659560665488243 -0.09668153524398804
0.002744461176916957 -0.02295076847076416 -0.09843899309635162
0.002783895470201969 -0.02320561185479164 -0.10012570768594742
0.0028237823862582445 -0.023429058492183685 -0.10174080729484557
0.0028639202937483788 -0.023630399256944656 -0.10328265279531479
0.0029037625063210726 -0.023821981623768806 -0.10474906861782075
0.0029425176326185465 -0.024016909301280975 -0.10613773763179779
0.002979256911203265 -0.024223515763878822 -0.10744719207286835
0.0030130252707749605 -0.02444077655673027 -0.10867762565612793
0.003042937722057104 -0.024657869711518288 -0.10983092337846756
0.003068262478336692 -0.024856524541974068 -0.1109103262424469
0.003088483354076743 -0.025014173239469528 -0.11191980540752411
0.0031033395789563656 -0.025102956220507622 -0.11286427825689316
0.0031128437258303165 -0.025088461115956306 -0.11374980211257935
0.003117278451099992 -0.024935569614171982 -0.11458258330821992
0.0031171750742942095 -0.024617787450551987 -0.11536727845668794
0.003113273996859789 -0.024125829339027405 -0.1161055341362953
0.0031064755748957396 -0.023473046720027924 -0.11679500341415405
0.003097780514508486 -0.02269662916660309 -0.11742910742759703
0.0030882256105542183 -0.021854590624570847 -0.11799763888120651

CELLS 50 150
2 0 1
2 1 2
2 2 3
2 3 4
2 4 5
2 5 6
2 6 7
2 7 8
2 8 9
2 9 10
2 10 11
2 11 12
2 12 13
2 13 14
2 14 15
2 15 16
2 16 17
2 17 18
2 18 19
2 19 20
2 20 21
2 21 22
2 22 23
2 23 24
2 24 25
2 25 26
2 26 27
2 27 28
2 28 29
2 29 30
2 30 31
2 31 32
2 32 33
2 33 34
2 34 35
2 35 36
2 36 37
2 37 38
2 38 39
2 39 40
2 40 41
2 41 42
2 42 43
2 43 44
2 44 45
2 45 46
2 46 47
2 47 48
2 48 49
2 49 50

CELL_TYPES 50
4
4
4
4
4
4
4
4
4
4
4
4
4
4
4
4
4
4
4
4
4
4
4
4
4
4
4
4
4
4
4
4
4
4
4
4
4
4
4
4
4
4
4
4
4
4
4
4
4
4

POINT_DATA 51

SCALARS zone float
LOOKUP_TABLE default
1.0
1.0
1.0
1.0
1.0
1.0
1.0
1.0
1.0
1.0
1.0
1.0
1.0
1.0
1.0
1.0
1.0
1.0
1.0
1.0
1.0
1.0
1.0
1.0
1.0
1.0
1.0
1.0
1.0
1.0
1.0
1.0
1.0
1.0
1.0
1.0
1.0
1.0
1.0
1.0
1.0
1.0
1.0
1.0
1.0
1.0
1.0
1.0
1.0
1.0
1.0

VECTORS normals float
-0.00022568028362002224 -0.000342187297064811 -0.002039934741333127
-0.00041008330299519 -0.0008607323397882283 -0.0040101963095366955
-0.0004114889306947589 -0.0010976714547723532 -0.0038912645541131496
-0.0004941182560287416 -0.0012108201626688242 -0.0037941606715321545
-0.00050858169561252 -0.0012150172842666507 -0.003716267645359039
-0.00037636776687577367 -0.0009483601315878332 -0.003686133772134781
-0.00013244299043435603 -0.0006215060129761696 -0.003666614182293415
0.00010425192886032163 -0.0005753076984547079 -0.0035976073704659934
0.00024776963982731104 -0.0005699103930965066 -0.0035214060917496677
0.00029544899007305503 -0.00048420342500321567 -0.003459365805611014
0.00027896405663341284 -0.0005141156143508852 -0.003376938635483384
0.00022802104649599642 -0.0005699354805983603 -0.003289943328127265
0.00016584688273724169 -0.0005429245647974312 -0.0032175532542169094
0.00010907424439210443 -0.00047680828720331187 -0.003152058459818363
6.713013135595247e-5 -0.00044228113256394863 -0.0030809936579316854
4.280570647097193e-5 -0.00046117167221382255 -0.003000509925186634
3.3935823012143373e-5 -0.000511616060975939 -0.00291446247138083
3.555617877282202e-5 -0.000550701457541436 -0.002830417826771736
4.251242717145942e-5 -0.0005476144724525511 -0.0027538093272596598
5.1016584620811045e-5 -0.0005031928303651512 -0.0026844891253858805
5.867081563337706e-5 -0.00044195301597937947 -0.0026181344874203205
6.413481605704874e-5 -0.0003903201431967318 -0.0025500860065221786
6.685699190711603e-5 -0.000360406149411574 -0.0024782076943665743
6.685387052129954e-5 -0.000350958202034235 -0.0024027209728956223
6.452756497310475e-5 -0.00035540733369998634 -0.0023247834760695696
6.0515933000715456e-5 -0.0003667213604785502 -0.002245635725557804
5.557234908337704e-5 -0.00037850765511393547 -0.0021664046216756105
5.047163722338155e-5 -0.00038527933065779507 -0.0020880578085780144
4.5931661588838324e-5 -0.00038268606294877827 -0.0020113622304052114
4.24893842136953e-5 -0.00036829482996836305 -0.0019367469940334558
4.035446181660518e-5 -0.0003426909970585257 -0.001864108839072287
3.940596798202023e-5 -0.0003092919068876654 -0.001792845199815929
3.931512765120715e-5 -0.0002730255655478686 -0.0017220870358869431
3.966056101489812e-5 -0.00023914501070976255 -0.0016509082634001972
4.001240085926838e-5 -0.00021239380293991414 -0.0015784724382683635
3.999012187705375e-5 -0.00019646150758489966 -0.001504128915257752
3.9298683986999094e-5 -0.00019325550238136202 -0.0014275413705036044
3.774720971705392e-5 -0.0002007673174375668 -0.0013490639394149184
3.52538627339527e-5 -0.00021193342399783432 -0.0012699422659352422
3.184030356351286e-5 -0.000217176740989089 -0.0011918648378923535
2.7618556487141177e-5 -0.000207873759791255 -0.0011163523886352777
2.2772850570618175e-5 -0.00017815180763136595 -0.0010444404324516654
1.7538583051646128e-5 -0.00012321649410296232 -0.00097697414457798
1.2180190424260218e-5 -3.714415288413875e-5 -0.0009149981779046357
6.969491550989915e-6 8.369384158868343e-5 -0.0008591523510403931
2.165645810237038e-6 0.00023533728381153196 -0.0008087383466772735
-2.002310793614015e-6 0.0004048703995067627 -0.0007614787900820374
-5.3496896725846455e-6 0.0005723702488467097 -0.0007138606742955744
-7.746687515464146e-6 0.0007145994459278882 -0.0006617867038585246
-9.125015822064597e-6 0.0008092274656519293 -0.0006013193633407354
-4.777483354700962e-6 0.00042101930011995137 -0.0002842642134055495

CELL_DATA 50

VECTORS liftinglineloading               float
0.03387893736362457 0.05184788629412651 -0.004536102060228586
-0.017909731715917587 0.0017288028029724956 -0.00015125064237508923
0.05616040900349618 0.07260443270206451 -0.0063520646654069415
0.0754658505320549 0.1134871244430542 -0.009928836487233639
-0.1020767316222191 0.1827714741230011 -0.01599043235182762
-0.6532133221626282 0.3194476068019867 -0.027948042377829555
-1.356349229812622 0.5511699914932251 -0.048221126198768616
-2.2673113346099854 0.7764359712600708 -0.06792934238910675
-3.2291884422302246 0.994153320789337 -0.08697714656591415
-4.228919982910156 1.2006434202194214 -0.1050426885485649
-5.033497333526611 1.3360319137573242 -0.1168876439332962
-6.001259803771973 1.509893536567688 -0.13209857046604156
-6.966050624847412 1.6479084491729736 -0.14417330920696259
-7.071789741516114 1.6246622800827029 -0.1421395242214203
-7.393996715545654 1.6069883108139038 -0.1405932605266571
-7.904667854309081 1.6237038373947144 -0.1420556753873825
-8.16903018951416 1.6021194458007812 -0.14016729593276978
-8.616822242736816 1.597753643989563 -0.13978533446788788
-8.937371253967285 1.5878456830978394 -0.13891850411891937
-9.077948570251465 1.593005895614624 -0.13936996459960938
-9.414148330688477 1.584530234336853 -0.13862843811511993
-9.700634956359863 1.5339199304580688 -0.13420060276985168
-9.706365585327148 1.4745066165924072 -0.1290026158094406
-9.843205451965332 1.4425227642059326 -0.12620438635349274
-9.980427742004395 1.4037225246429443 -0.12280981242656708
-10.183699607849121 1.374089002609253 -0.1202172115445137
-10.450897216796875 1.3412799835205078 -0.11734679341316223
-10.709333419799805 1.2993031740188599 -0.11367429047822952
-10.967764854431152 1.255735993385315 -0.10986266285181044
-11.274134635925293 1.2093771696090698 -0.10580679029226303
-11.378008842468262 1.1547800302505493 -0.10103016346693039
-11.910916328430176 1.1269394159317017 -0.09859441965818405
-11.949917793273926 1.062955617904663 -0.09299656003713608
-11.965909004211426 1.0195778608322144 -0.08920150995254517
-11.95627498626709 0.9836074709892274 -0.08605450391769409
-11.893136978149414 0.9495139718055725 -0.08307170867919922
-11.78049087524414 0.9303259849548341 -0.08139297366142273
-11.618585586547852 0.9154237508773803 -0.08008920401334763
-11.413056373596191 0.8931649327278136 -0.07814180850982666
-11.00147819519043 0.8719409704208375 -0.07628495246171951
-10.680076599121094 0.8469777703285217 -0.07410094887018204
-10.021754264831543 0.8150646686553954 -0.0713089182972908
-9.039388656616211 0.919037699699402 -0.08040537685155869
-7.709507942199707 0.9816012382507325 -0.08587898313999176
-6.616903781890869 1.1499377489089966 -0.1006065160036087
-5.50031042098999 1.2078484296798706 -0.10567303746938705
-4.664268493652344 1.245354175567627 -0.10895437002182008
-3.716896057128906 1.2872357368469238 -0.11261853575706482
-2.8181779384613037 1.3099219799041748 -0.11460332572460176
-1.5136481523513794 1.3657523393630981 -0.11948784440755843