# vtk DataFile Version 4.0
 
ASCII
DATASET UNSTRUCTURED_GRID
POINTS 51 float
0.0029255072586238384 0.002010692609474063 -0.0073114666156470776
0.0024741466622799635 0.0052017755806446075 -0.009944086894392967
0.0021053405944257975 0.008095824159681797 -0.01281249523162842
0.0016511689173057675 0.0108439726755023 -0.015736574307084084
0.001117104198783636 0.013456682674586773 -0.01870385743677616
0.0006340054678730667 0.016065720468759537 -0.021557314321398735
0.0003643686359282583 0.018892893567681313 -0.024032600224018097
0.0003691194870043546 0.02179497480392456 -0.02630040794610977
0.000572872522752732 0.02454882487654686 -0.028626669198274616
0.0008646587957628071 0.027324318885803223 -0.03080892749130726
0.0011637704446911812 0.030056418851017952 -0.032924700528383255
0.001422586850821972 0.03265923261642456 -0.035076338797807693
0.0016198125667870045 0.0351848304271698 -0.03720179945230484
0.0017542806454002857 0.03768927603960037 -0.03923426568508148
0.001837961026467383 0.04016754776239395 -0.04117971286177635
0.0018885409226641061 0.04258343204855919 -0.043081313371658325
0.001923572504892945 0.04490341246128082 -0.044978998601436615
0.0019564125686883926 0.04711981117725372 -0.04688192158937454
0.0019946848042309284 0.049255140125751495 -0.04876325652003288
0.002041437430307269 0.051341935992240906 -0.050584226846694946
0.00209671794436872 0.05340161547064782 -0.052319303154945374
0.002158778952434659 0.055434722453355796 -0.053967844694852836
0.002224987605586648 0.05742817372083664 -0.055545441806316376
0.002292493125423789 0.059366699308156974 -0.05707029625773429
0.0023586952593177557 0.0612388513982296 -0.05855604261159897
0.0024215481244027615 0.0630379319190979 -0.06001066416501999
0.0024797271471470594 0.064761683344841 -0.061436858028173454
0.0025326928589493036 0.06641174852848053 -0.06283266097307205
0.0025806704070419073 0.06799302995204926 -0.06419223546981812
0.002624556189402938 0.06951284408569336 -0.06550685316324234
0.0026656491681933403 0.0709792748093605 -0.0667668879032135
0.0027052650693804026 0.07239888608455658 -0.06796452403068542
0.002744461176916957 0.0737752839922905 -0.06909544765949249
0.002783895470201969 0.075108602643013 -0.07015950232744217
0.0028237823862582445 0.07639559358358383 -0.07116056233644485
0.0028639202937483788 0.07763020694255829 -0.07210585474967957
0.0029037625063210726 0.0788043662905693 -0.07300497591495514
0.0029425176326185465 0.07990952581167221 -0.07386812567710876
0.002979256911203265 0.08094024658203125 -0.07470177859067917
0.0030130252707749605 0.08189719170331955 -0.07550514489412308
0.003042937722057104 0.08278743922710419 -0.07626980543136597
0.003068262478336692 0.08362289518117905 -0.0769815444946289
0.003088483354076743 0.08441831171512604 -0.07762281596660614
0.0031033395789563656 0.08519185334444046 -0.07817193865776062
0.0031128437258303165 0.08596599102020264 -0.0786021426320076
0.003117278451099992 0.0867636427283287 -0.07888612896203995
0.0031171750742942095 0.08760210126638412 -0.07900326699018478
0.003113273996859789 0.08848743140697479 -0.07894635200500488
0.0031064755748957396 0.08941091597080231 -0.07872575521469116
0.003097780514508486 0.09034828096628189 -0.07837041467428207
0.0030882256105542183 0.09126165509223938 -0.07792545109987259

CELLS 50 150
2 0 1
2 1 2
2 2 3
2 3 4
2 4 5
2 5 6
2 6 7
2 7 8
2 8 9
2 9 10
2 10 11
2 11 12
2 12 13
2 13 14
2 14 15
2 15 16
2 16 17
2 17 18
2 18 19
2 19 20
2 20 21
2 21 22
2 22 23
2 23 24
2 24 25
2 25 26
2 26 27
2 27 28
2 28 29
2 29 30
2 30 31
2 31 32
2 32 33
2 33 34
2 34 35
2 35 36
2 36 37
2 37 38
2 38 39
2 39 40
2 40 41
2 41 42
2 42 43
2 43 44
2 44 45
2 45 46
2 46 47
2 47 48
2 48 49
2 49 50

CELL_TYPES 50
4
4
4
4
4
4
4
4
4
4
4
4
4
4
4
4
4
4
4
4
4
4
4
4
4
4
4
4
4
4
4
4
4
4
4
4
4
4
4
4
4
4
4
4
4
4
4
4
4
4

POINT_DATA 51

SCALARS zone float
LOOKUP_TABLE default
1.0
1.0
1.0
1.0
1.0
1.0
1.0
1.0
1.0
1.0
1.0
1.0
1.0
1.0
1.0
1.0
1.0
1.0
1.0
1.0
1.0
1.0
1.0
1.0
1.0
1.0
1.0
1.0
1.0
1.0
1.0
1.0
1.0
1.0
1.0
1.0
1.0
1.0
1.0
1.0
1.0
1.0
1.0
1.0
1.0
1.0
1.0
1.0
1.0
1.0
1.0

VECTORS normals float
-0.00022568028362002224 0.0015955416020005944 -0.0013163102557882667
-0.00041008330299519 0.0030425656586885452 -0.00275051430799067
-0.0004114889306947589 0.0028210983145982027 -0.002896243706345558
-0.0004941182560287416 0.0026804294902831316 -0.0029456813354045153
-0.00050858169561252 0.0026108736637979746 -0.0029103695414960384
-0.00037636776687577367 0.00271810544654727 -0.0026643709279596806
-0.00013244299043435603 0.002864627866074443 -0.002371547045186162
0.00010425192886032163 0.00282796542160213 -0.0022970347199589014
0.00024776963982731104 0.002764672040939331 -0.002254260005429387
0.00029544899007305503 0.002753796987235546 -0.0021490154322236776
0.00027896405663341284 0.002667456865310669 -0.002133706584572792
0.00022802104649599642 0.0025642067193984985 -0.0021385501604527235
0.00016584688273724169 0.0025150205474346876 -0.002078962977975607
0.00010907424439210443 0.002491358434781432 -0.001988957403227687
6.713013135595247e-5 0.002447078237310052 -0.0019235234940424564
4.280570647097193e-5 0.0023679318837821484 -0.0018996413564309478
3.3935823012143373e-5 0.0022681904956698418 -0.0019003036431968212
3.555617877282202e-5 0.0021758629009127617 -0.001892130356281996
4.251242717145942e-5 0.0021110614761710167 -0.0018511526286602018
5.1016584620811045e-5 0.002073239302262664 -0.0017780223861336708
5.867081563337706e-5 0.0020463946275413036 -0.001691809855401516
6.413481605704874e-5 0.0020132791250944138 -0.0016130701405927537
6.685699190711603e-5 0.001965987728908658 -0.0015512247337028384
6.685387052129954e-5 0.0019053382566198707 -0.0015052991220727563
6.452756497310475e-5 0.0018356179352849722 -0.0014701836043968797
6.0515933000715456e-5 0.0017614169046282766 -0.0014404079411178827
5.557234908337704e-5 0.0016869077226147056 -0.0014109995681792498
5.047163722338155e-5 0.0016156714409589765 -0.0013776905834674835
4.5931661588838324e-5 0.0015505477786064148 -0.0013370970264077187
4.24893842136953e-5 0.001493124640546739 -0.0012873262166976929
4.035446181660518e-5 0.0014430200681090355 -0.0012288335710763931
3.940596798202023e-5 0.0013980035437271 -0.0011642772005870938
3.931512765120715e-5 0.0013548583956435323 -0.0010974905453622341
3.966056101489812e-5 0.0013101559597998857 -0.0010325597831979394
4.001240085926838e-5 0.0012608002871274948 -0.0009731746395118533
3.999012187705375e-5 0.0012043830938637257 -0.0009222051012329757
3.9298683986999094e-5 0.0011396593181416392 -0.0008811348234303296
3.774720971705392e-5 0.0010679400293156505 -0.0008484015706926585
3.52538627339527e-5 0.0009938355069607496 -0.0008185108890756964
3.184030356351286e-5 0.0009235969046130776 -0.0007840130128897727
2.7618556487141177e-5 0.0008628526702523232 -0.0007382001494988799
2.2772850570618175e-5 0.0008154360111802816 -0.0006765041616745293
1.7538583051646128e-5 0.0007844761712476611 -0.000595195684581995
1.2180190424260218e-5 0.0007738395943306386 -0.0004896668833680451
6.969491550989915e-6 0.0007858946919441223 -0.00035709518124349415
2.165645810237038e-6 0.0008180565782822669 -0.00020056110224686563
-2.002310793614015e-6 0.0008618951542302966 -3.011133594554849e-5
-5.3496896725846455e-6 0.0009044065955094993 0.00013875683362130076
-7.746687515464146e-6 0.0009304237901233137 0.00028796790866181254
-9.125015822064597e-6 0.0009253715397790074 0.00040015185368247336
-4.777483354700962e-6 0.0004566896823234856 0.0002224813069915399

CELL_DATA 50

VECTORS liftinglineloading               float
0.04754402115941048 0.037486862391233444 0.0535367913544178
-0.004698683507740498 0.008754119277000427 0.012502177618443966
0.0413692481815815 0.03454935550689697 0.0493415929377079
0.11087310314178467 0.05964889377355575 0.08518745005130768
-0.0454036109149456 0.0946536436676979 0.13517941534519196
-0.6015470027923584 0.17626093327999115 0.2517266869544983
-1.348183274269104 0.316682904958725 0.45227006077766413
-2.322157859802246 0.4526669383049011 0.6464753746986389
-3.446365118026733 0.5920126438140869 0.8454816937446595
-4.529611110687256 0.7148978114128113 1.020979881286621
-5.397291660308838 0.7947412729263306 1.1350082159042358
-6.2729973793029785 0.8873230814933776 1.267228603363037
-7.177141189575195 0.9603663682937622 1.3715453147888184
-7.269636631011962 0.9433008432388306 1.3471732139587402
-7.5371527671813965 0.930209994316101 1.3284776210784912
-7.972464084625244 0.9347738027572631 1.3349952697753906
-8.173056602478027 0.9184473752975463 1.3116787672042847
-8.557334899902344 0.9131274819374084 1.3040812015533447
-8.867593765258789 0.9071927070617675 1.2956055402755737
-8.967129707336426 0.9088396430015563 1.2979575395584106
-9.303833961486816 0.903324544429779 1.2900811433792114
-9.536998748779297 0.8734645843505859 1.247436761856079
-9.505570411682129 0.8393236994743347 1.1986784934997559
-9.616362571716309 0.8214610815048219 1.1731679439544678
-9.740276336669922 0.8004473447799683 1.1431572437286377
-9.97103500366211 0.7843734622001648 1.1202013492584229
-10.226819038391113 0.7666698694229126 1.0949180126190186
-10.45837116241455 0.7433404922485352 1.0616003274917603
-10.659892082214355 0.71994948387146 1.0281944274902344
-10.978269577026367 0.6946661472320557 0.9920860528945923
-11.110797882080078 0.6645317077636719 0.9490496516227723
-11.673212051391602 0.649755597114563 0.9279471039772034
-11.731598854064941 0.6142931580543518 0.8773015141487122
-11.765921592712402 0.589280366897583 0.8415795564651489
-11.796712875366211 0.5677614212036133 0.8108474016189575
-11.752720832824707 0.5477630496025085 0.7822867035865784
-11.65947151184082 0.5362862348556519 0.7658961415290833
-11.517376899719238 0.5273764729499817 0.7531716227531433
-11.332164764404297 0.5143200159072876 0.7345251441001892
-10.968160629272461 0.5012496113777161 0.7158586382865906
-10.680488586425781 0.486539363861084 0.6948502063751221
-10.055451393127441 0.4682222306728363 0.6686906218528748
-9.021336555480957 0.5285354256629944 0.7548267841339111
-7.710532188415528 0.5646223425865173 0.8063642382621765
-6.6339898109436035 0.6620303988456726 0.9454773664474486
-5.530726909637451 0.696146547794342 0.9942002892494202
-4.705427169799805 0.7185378074645996 1.0261783599853516
-3.7649493217468266 0.7435749769210815 1.0619351863861084
-2.867426633834839 0.7577426433563232 1.082168698310852
-1.5482041835784912 0.7909776568412781 1.1296331882476807