# vtk DataFile Version 4.0
 
ASCII
DATASET UNSTRUCTURED_GRID
POINTS 51 float
0.0029255072586238384 0.006591761950403452 -0.0037482131738215685
0.0024741466622799635 0.010709742084145546 -0.003353320294991136
0.0021053405944257975 0.014784414321184157 -0.0033351900056004524
0.0016511689173057675 0.018795285373926163 -0.0034595918841660023
0.001117104198783636 0.022740935906767845 -0.0037103130016475916
0.0006340054678730667 0.026603501290082928 -0.003883143188431859
0.0003643686359282583 0.03035290725529194 -0.003634320804849267
0.0003691194870043546 0.03400857001543045 -0.0031858214642852545
0.000572872522752732 0.03760075196623802 -0.0028834715485572815
0.0008646587957628071 0.041106414049863815 -0.0024639898911118507
0.0011637704446911812 0.04453437402844429 -0.002028181217610836
0.001422586850821972 0.047896284610033035 -0.0017091528279706836
0.0016198125667870045 0.05118507891893387 -0.0014262120239436626
0.0017542806454002857 0.05439315736293793 -0.0010924744419753551
0.001837961026467383 0.05752120167016984 -0.0007157094078138471
0.0018885409226641061 0.060574121773242944 -0.0003520563477650285
0.001923572504892945 0.06355646252632141 -5.34464415977709e-5
0.0019564125686883926 0.06646925956010818 0.00016821410099510103
0.0019946848042309284 0.06930947303771973 0.00034781210706569254
0.002041437430307269 0.07207267731428146 0.0005357807967811823
0.00209671794436872 0.07475598156452179 0.0007653119973838329
0.002158778952434659 0.07735929638147354 0.0010372393298894167
0.002224987605586648 0.07988440990447998 0.001331293024122715
0.002292493125423789 0.08233338594436646 0.0016238028183579445
0.0023586952593177557 0.08470778167247772 0.0018970336532220244
0.0024215481244027615 0.08700849860906601 0.0021406051237136126
0.0024797271471470594 0.08923584222793579 0.002351009054109454
0.0025326928589493036 0.09138960391283035 0.0025307980831712484
0.0025806704070419073 0.09346909821033478 0.002687564818188548
0.002624556189402938 0.09547334909439087 0.0028326630126684904
0.0026656491681933403 0.09740124642848969 0.002978607779368758
0.0027052650693804026 0.09925191849470139 0.003135568695142865
0.002744461176916957 0.10102485865354538 0.0033091467339545484
0.002783895470201969 0.10272006690502167 0.0034995416644960638
0.0028237823862582445 0.10433796048164368 0.003701726906001568
0.0028639202937483788 0.10587938129901885 0.003906305879354477
0.0029037625063210726 0.10734540969133377 0.004100786987692118
0.0029425176326185465 0.10873721539974211 0.004271914716809988
0.002979256911203265 0.11005552858114244 0.004411261063069105
0.0030130252707749605 0.1113002598285675 0.004519861191511154
0.003042937722057104 0.11247045546770097 0.004608662333339453
0.003068262478336692 0.11356449127197266 0.004696146119385958
0.003088483354076743 0.1145803779363632 0.004805141594260931
0.0031033395789563656 0.11551564186811447 0.004963829182088375
0.0031128437258303165 0.11636724323034285 0.005207022652029991
0.003117278451099992 0.11713207513093948 0.005570243578404188
0.0031171750742942095 0.11780778318643569 0.006080293096601963
0.003113273996859789 0.11839356273412704 0.006746563594788313
0.0031064755748957396 0.11889057606458664 0.007555549032986164
0.003097780514508486 0.11930213123559952 0.008469629101455212
0.0030882256105542183 0.11963335424661638 0.009430122561752796

CELLS 50 150
2 0 1
2 1 2
2 2 3
2 3 4
2 4 5
2 5 6
2 6 7
2 7 8
2 8 9
2 9 10
2 10 11
2 11 12
2 12 13
2 13 14
2 14 15
2 15 16
2 16 17
2 17 18
2 18 19
2 19 20
2 20 21
2 21 22
2 22 23
2 23 24
2 24 25
2 25 26
2 26 27
2 27 28
2 28 29
2 29 30
2 30 31
2 31 32
2 32 33
2 33 34
2 34 35
2 35 36
2 36 37
2 37 38
2 38 39
2 39 40
2 40 41
2 41 42
2 42 43
2 43 44
2 44 45
2 45 46
2 46 47
2 47 48
2 48 49
2 49 50

CELL_TYPES 50
4
4
4
4
4
4
4
4
4
4
4
4
4
4
4
4
4
4
4
4
4
4
4
4
4
4
4
4
4
4
4
4
4
4
4
4
4
4
4
4
4
4
4
4
4
4
4
4
4
4

POINT_DATA 51

SCALARS zone float
LOOKUP_TABLE default
1.0
1.0
1.0
1.0
1.0
1.0
1.0
1.0
1.0
1.0
1.0
1.0
1.0
1.0
1.0
1.0
1.0
1.0
1.0
1.0
1.0
1.0
1.0
1.0
1.0
1.0
1.0
1.0
1.0
1.0
1.0
1.0
1.0
1.0
1.0
1.0
1.0
1.0
1.0
1.0
1.0
1.0
1.0
1.0
1.0
1.0
1.0
1.0
1.0
1.0
1.0

VECTORS normals float
-0.00022568028362002224 0.002058990066871047 0.00019744638120755553
-0.00041008330299519 0.0040963259525597095 0.00020651152590289712
-0.0004114889306947589 0.004042771179229021 -5.3135787311475724e-5
-0.0004941182560287416 0.003978261258453131 -0.00018756146891973913
-0.00050858169561252 0.0039041086565703154 -0.00021177565213292834
-0.00037636776687577367 0.003805985441431403 3.799607293331064e-5
-0.00013244299043435603 0.0037025348283350463 0.0003486608911771327
0.00010425192886032163 0.003623922355473042 0.0003754247154574841
0.00024776963982731104 0.003548920853063464 0.0003609158447943628
0.00029544899007305503 0.003466811729595065 0.00042764516547322273
0.00027896405663341284 0.0033949350472539663 0.0003774185024667531
0.00022802104649599642 0.0033253512810915713 0.0003009845386259258
0.00016584688273724169 0.0032484368421137337 0.00030833916389383376
0.00010907424439210443 0.0031680616084486246 0.0003552513080649078
6.713013135595247e-5 0.0030904822051525116 0.0003702090762089938
4.280570647097193e-5 0.003017629962414503 0.00033113150857388973
3.3935823012143373e-5 0.0029475705232471228 0.00026013521710410714
3.555617877282202e-5 0.002876505721360445 0.0002006292634177953
4.251242717145942e-5 0.002801708411425352 0.000183783340617083
5.1016584620811045e-5 0.002723253332078457 0.0002087499451590702
5.867081563337706e-5 0.002643309533596039 0.00025072923745028675
6.413481605704874e-5 0.0025642162654548883 0.00028299051336944103
6.685699190711603e-5 0.002487044781446457 0.00029328177333809435
6.685387052129954e-5 0.0024116847198456526 0.0002828703436534852
6.452756497310475e-5 0.0023375547025352716 0.0002584011235740036
6.0515933000715456e-5 0.0022640321403741837 0.0002269876567879692
5.557234908337704e-5 0.0021905512548983097 0.00019509647972881794
5.047163722338155e-5 0.0021166265942156315 0.00016827786748763174
4.5931661588838324e-5 0.002041873289272189 0.0001509325229562819
4.24893842136953e-5 0.001966075738891959 0.0001455215096939355
4.035446181660518e-5 0.0018892857478931544 0.00015145276847761124
3.940596798202023e-5 0.001811806112527847 0.00016526943363714963
3.931512765120715e-5 0.0017340725753456354 0.0001819864846765995
3.966056101489812e-5 0.0016565502155572178 0.00019629015878308564
4.001240085926838e-5 0.0015796588268131018 0.00020338204922154546
3.999012187705375e-5 0.0015037248376756907 0.00019952995353378356
3.9298683986999094e-5 0.001428917283192277 0.00018280440417584032
3.774720971705392e-5 0.0013550581643357873 0.00015523711044806987
3.52538627339527e-5 0.0012815224472433329 0.00012397326645441353
3.184030356351286e-5 0.0012074625119566917 9.870070789474994e-5
2.7618556487141177e-5 0.0011321153724566102 8.81426312844269e-5
2.2772850570618175e-5 0.0010549610015004873 9.823963046073914e-5
1.7538583051646128e-5 0.0009755752980709076 0.00013384151679929346
1.2180190424260218e-5 0.0008934339857660235 0.00020094045612495393
6.969491550989915e-6 0.0008082158747129142 0.0003032070235349238
2.165645810237038e-6 0.000720271491445601 0.0004366352513898164
-2.002310793614015e-6 0.0006307438598014414 0.0005881600081920624
-5.3496896725846455e-6 0.0005413961480371654 0.0007376279681921005
-7.746687515464146e-6 0.0004542849201243371 0.0008615330443717539
-9.125015822064597e-6 0.00037138641346246004 0.0009372865897603333
-4.777483354700962e-6 0.00016561032680328935 0.00048024641000665724

CELL_DATA 50

VECTORS liftinglineloading               float
0.014070861041545868 -0.004230129532516003 0.02399025857448578
0.0036595170386135574 -0.0042077298276126385 0.02386322245001793
0.050658680498600006 -0.014280389994382858 0.08098811656236649
0.027965676039457318 -0.02168329246342182 0.1229720637202263
-0.19044145941734314 -0.036380428820848465 0.20632365345954895
-0.7649402618408203 -0.06057024747133254 0.3435109555721283
-1.477453351020813 -0.10013900697231293 0.5679165124893188
-2.3637900352478027 -0.13788634538650513 0.7819923162460327
-3.3930840492248535 -0.1775015890598297 1.0066615343093872
-4.375321865081787 -0.21246472001075742 1.2049473524093628
-5.160353183746338 -0.23511430621147156 1.3333994150161743
-6.100897789001465 -0.2646121382713318 1.50068998336792
-7.034326076507568 -0.2876134216785431 1.631136775016785
-7.104159355163573 -0.2824861705303192 1.6020587682724
-7.420516014099121 -0.2793482840061188 1.5842628479003906
-7.930153846740723 -0.2820641100406647 1.5996651649475098
-8.203374862670898 -0.278171569108963 1.5775893926620483
-8.644074440002441 -0.2769440710544586 1.5706279277801514
-8.969162940979004 -0.27514562010765076 1.5604283809661865
-9.092971801757812 -0.27607136964797974 1.5656784772872925
-9.462318420410156 -0.274340957403183 1.555864930152893
-9.724791526794434 -0.2654713988304138 1.5055631399154663
-9.672378540039062 -0.2547937035560608 1.4450068473815918
-9.797258377075195 -0.24925135076045987 1.4135746955871582
-9.922760009765625 -0.24255783855915067 1.3756139278411865
-10.117542266845703 -0.2375166863203049 1.3470240831375122
-10.380127906799316 -0.23196128010749817 1.315517783164978
-10.63818359375 -0.22483663260936737 1.2751119136810303
-10.924073219299316 -0.21734623610973358 1.2326316833496094
-11.25735092163086 -0.2093474417924881 1.1872683763504028
-11.388427734375 -0.1998387575149536 1.133341908454895
-11.944541931152344 -0.19484752416610718 1.1050351858139038
-12.002029418945312 -0.1835334151983261 1.0408697128295898
-12.05270767211914 -0.17585398256778717 0.9973174929618834
-12.064159393310547 -0.16961397230625153 0.9619286060333252
-12.021062850952148 -0.16375243663787842 0.928686261177063
-11.926398277282715 -0.1605345755815506 0.9104368686676025
-11.780563354492188 -0.15804049372673035 0.8962921500205994
-11.589805603027344 -0.15422643721103668 0.8746615648269654
-11.207137107849121 -0.1505192369222641 0.8536369800567627
-10.901196479797363 -0.1461838334798813 0.8290496468544006
-10.244730949401855 -0.14125454425811768 0.8010942935943604
-9.248785018920898 -0.15972420573234558 0.9058409333229065
-7.915472507476807 -0.17115415632724762 0.9706634283065796
-6.813049793243408 -0.20154152810573578 1.1429988145828247
-5.686227798461914 -0.2122666239738464 1.2038238048553467
-4.839710712432861 -0.21914470195770264 1.2428313493728638
-3.876939296722412 -0.22679707407951355 1.2862300872802734
-2.9551305770874023 -0.2311666011810303 1.3110109567642212
-1.5901576280593872 -0.24098193645477295 1.3666765689849854