# vtk DataFile Version 4.0
 
ASCII
DATASET UNSTRUCTURED_GRID
POINTS 51 float
0.0029255072586238384 -0.006893356796354056 0.0031594401225447655
0.0024741466622799635 -0.010961249470710754 0.002407144522294402
0.0021053405944257975 -0.01501883566379547 0.002033952157944441
0.0016511689173057675 -0.01902528665959835 0.0018083101604133842
0.001117104198783636 -0.02297777496278286 0.0017141910502687097
0.0006340054678730667 -0.0268407054245472 0.0015497187850996852
0.0003643686359282583 -0.030554156750440598 0.0009750610333867371
0.0003691194870043546 -0.03415682166814804 0.00020965616567991674
0.000572872522752732 -0.03770897909998894 -0.0004046224639751017
0.0008646587957628071 -0.041164740920066833 -0.0011280464241281152
0.0011637704446911812 -0.044541675597429276 -0.0018609632970765233
0.001422586850821972 -0.04786298796534538 -0.002471787156537175
0.0016198125667870045 -0.051114607602357864 -0.0030402885749936104
0.0017542806454002857 -0.05428139120340347 -0.0036523586604744196
0.001837961026467383 -0.057364694774150855 -0.004300317261368036
0.0018885409226641061 -0.06037430092692376 -0.004928665701299906
0.001923572504892945 -0.06331926584243774 -0.00548606738448143
0.0019564125686883926 -0.06620166450738907 -0.005960751790553331
0.0019946848042309284 -0.06901541352272034 -0.006387207191437483
0.002041437430307269 -0.07175172120332718 -0.006815290078520776
0.00209671794436872 -0.07440480589866638 -0.00727781280875206
0.002158778952434659 -0.07697451859712601 -0.007775599602609873
0.002224987605586648 -0.0794643983244896 -0.008288612589240074
0.002292493125423789 -0.08187855780124664 -0.008793451823294163
0.0023586952593177557 -0.08422010391950607 -0.009272584691643715
0.0024215481244027615 -0.08649083971977234 -0.009715749882161617
0.0024797271471470594 -0.08869136869907379 -0.010119479149580002
0.0025326928589493036 -0.09082125872373581 -0.010486296378076077
0.0025806704070419073 -0.09287918359041214 -0.010823706164956093
0.002624556189402938 -0.094863161444664 -0.011142934672534466
0.0026656491681933403 -0.0967710092663765 -0.011456351727247238
0.0027052650693804026 -0.09860095381736755 -0.011774011887609959
0.002744461176916957 -0.10035201907157898 -0.012101450935006142
0.002783895470201969 -0.10202417522668839 -0.012438868172466755
0.0028237823862582445 -0.1036183014512062 -0.012781293131411076
0.0028639202937483788 -0.10513602197170258 -0.013119436800479889
0.0029037625063210726 -0.1065795198082924 -0.013440951704978943
0.0029425176326185465 -0.10795111209154128 -0.013732731342315674
0.002979256911203265 -0.10925226658582687 -0.013986445963382723
0.0030130252707749605 -0.11048279702663422 -0.01420311816036701
0.003042937722057104 -0.11164079606533052 -0.014393570832908154
0.003068262478336692 -0.11272304505109788 -0.014576073735952376
0.003088483354076743 -0.11372556537389755 -0.014773194678127766
0.0031033395789563656 -0.11464344710111618 -0.015012792311608791
0.0031128437258303165 -0.11547061055898666 -0.01532928179949522
0.003117278451099992 -0.11620087176561356 -0.015757780522108078
0.0031171750742942095 -0.1168295592069626 -0.016324780881404877
0.003113273996859789 -0.11735503375530244 -0.017039569094777107
0.0031064755748957396 -0.1177796572446823 -0.01788879558444023
0.003097780514508486 -0.11810997128486633 -0.018835265189409256
0.0030882256105542183 -0.11835622042417526 -0.01982097141444683

CELLS 50 150
2 0 1
2 1 2
2 2 3
2 3 4
2 4 5
2 5 6
2 6 7
2 7 8
2 8 9
2 9 10
2 10 11
2 11 12
2 12 13
2 13 14
2 14 15
2 15 16
2 16 17
2 17 18
2 18 19
2 19 20
2 20 21
2 21 22
2 22 23
2 23 24
2 24 25
2 25 26
2 26 27
2 27 28
2 28 29
2 29 30
2 30 31
2 31 32
2 32 33
2 33 34
2 34 35
2 35 36
2 36 37
2 37 38
2 38 39
2 39 40
2 40 41
2 41 42
2 42 43
2 43 44
2 44 45
2 45 46
2 46 47
2 47 48
2 48 49
2 49 50

CELL_TYPES 50
4
4
4
4
4
4
4
4
4
4
4
4
4
4
4
4
4
4
4
4
4
4
4
4
4
4
4
4
4
4
4
4
4
4
4
4
4
4
4
4
4
4
4
4
4
4
4
4
4
4

POINT_DATA 51

SCALARS zone float
LOOKUP_TABLE default
1.0
1.0
1.0
1.0
1.0
1.0
1.0
1.0
1.0
1.0
1.0
1.0
1.0
1.0
1.0
1.0
1.0
1.0
1.0
1.0
1.0
1.0
1.0
1.0
1.0
1.0
1.0
1.0
1.0
1.0
1.0
1.0
1.0
1.0
1.0
1.0
1.0
1.0
1.0
1.0
1.0
1.0
1.0
1.0
1.0
1.0
1.0
1.0
1.0
1.0
1.0

VECTORS normals float
-0.00022568028362002224 -0.002033946570008993 -0.0003761478583328426
-0.00041008330299519 -0.0040627396665513515 -0.0005627440405078232
-0.0004114889306947589 -0.004032018594443798 -0.0002994171518366784
-0.0004941182560287416 -0.003979469649493694 -0.0001598805538378656
-0.00050858169561252 -0.00390770984813571 -0.00012929570220876485
-0.00037636776687577367 -0.003788190893828869 -0.0003695649793371558
-0.00013244299043435603 -0.0036580578889697786 -0.000670031295157969
0.00010425192886032163 -0.0035774118732661013 -0.0006898417486809194
0.00024776963982731104 -0.0035039603244513273 -0.0006688512512482703
0.00029544899007305503 -0.0034163477830588813 -0.0007281703874468803
0.00027896405663341284 -0.0033491221256554127 -0.0006718704244121909
0.00022802104649599642 -0.003286464838311076 -0.0005896626971662045
0.00016584688273724169 -0.0032092020846903324 -0.0005902858101762831
0.00010907424439210443 -0.0031250440515577793 -0.0006300142267718911
6.713013135595247e-5 -0.0030464560259133577 -0.000638153578620404
4.280570647097193e-5 -0.00297728693112731 -0.0005928752361796796
3.3935823012143373e-5 -0.0029136817902326584 -0.0005160430446267128
3.555617877282202e-5 -0.0028480736073106527 -0.0004505697870627046
4.251242717145942e-5 -0.00277502927929163 -0.000427268969360739
5.1016584620811045e-5 -0.0026946966536343098 -0.00044530275044962764
5.867081563337706e-5 -0.0026113984640687704 -0.00048015476204454893
6.413481605704874e-5 -0.0025297943502664566 -0.0005053998320363462
6.685699190711603e-5 -0.0024520198348909616 -0.0005089259939268231
6.685387052129954e-5 -0.002377853961661458 -0.0004919861094094813
6.452756497310475e-5 -0.0023061383981257677 -0.0004611491458490491
6.0515933000715456e-5 -0.0022356335539370775 -0.00042344728717580443
5.557234908337704e-5 -0.0021652118302881718 -0.0003852731897495687
5.047163722338155e-5 -0.0020939058158546686 -0.00035211368231102824
4.5931661588838324e-5 -0.0020209485664963722 -0.00032831914722919464
4.24893842136953e-5 -0.0019459110917523505 -0.000316322548314929
4.035446181660518e-5 -0.0018688965355977414 -0.0003155385493300855
3.940596798202023e-5 -0.0017905074637383223 -0.0003225498367100954
3.931512765120715e-5 -0.0017116126837208867 -0.00033242834615521133
3.966056101489812e-5 -0.0016331387450918555 -0.00033992109820246696
4.001240085926838e-5 -0.0015559218591079116 -0.0003402844595257193
3.999012187705375e-5 -0.0014806125545874238 -0.00032982893753796816
3.9298683986999094e-5 -0.0014075473882257938 -0.00030664712539874017
3.774720971705392e-5 -0.0013363718753680587 -0.0002727474784478545
3.52538627339527e-5 -0.0012658408377319574 -0.0002351935545448214
3.184030356351286e-5 -0.0011942654382437468 -0.0002035624202108011
2.7618556487141177e-5 -0.001120125176385045 -0.00018647756951395422
2.2772850570618175e-5 -0.00104238442145288 -0.00018981171888299286
1.7538583051646128e-5 -0.0009601978817954661 -0.00021835920051671567
1.2180190424260218e-5 -0.0008725210791453719 -0.00027804373530671
6.969491550989915e-6 -0.0007787141366861761 -0.00037249390152283013
2.165645810237038e-6 -0.0006794753717258573 -0.0004977494827471673
-2.002310793614015e-6 -0.0005770821589976549 -0.0006408948102034628
-5.3496896725846455e-6 -0.0004750474763568491 -0.0007820068276487291
-7.746687515464146e-6 -0.00037746867747046053 -0.0008978482219390571
-9.125015822064597e-6 -0.00028828324866481125 -0.000966088380664587
-4.777483354700962e-6 -0.00012312390026636422 -0.0004928528214804828

CELL_DATA 50

VECTORS liftinglineloading               float
0.06101590022444725 0.019678696990013123 -0.07344190031290054
0.03998253867030144 0.01744384504854679 -0.06510131061077118
-0.0014056370127946138 0.012964305467903614 -0.0483834445476532
0.13242870569229126 0.024097219109535217 -0.08993204683065414
0.05400572717189789 0.033975739032030106 -0.12679918110370636
-0.4089946150779724 0.06626919656991959 -0.2473200112581253
-1.0869227647781372 0.12728841602802277 -0.475046843290329
-2.038306951522827 0.19172896444797516 -0.715542197227478
-3.210847854614258 0.25928187370300293 -0.9676530957221985
-4.265489101409912 0.3150487542152405 -1.1757779121398926
-5.098376750946045 0.3507381081581116 -1.3089723587036133
-6.059108257293701 0.3952125310897827 -1.474953293800354
-6.976805686950683 0.42902353405952454 -1.601137638092041
-7.018186092376709 0.4208086729049682 -1.570479393005371
-7.250392436981201 0.4135679602622986 -1.5434565544128418
-7.698411941528319 0.4164002239704132 -1.55402672290802
-7.901593208312989 0.41007411479949946 -1.5304174423217773
-8.326711654663086 0.409826785326004 -1.529494285583496
-8.594978332519531 0.4069224894046783 -1.5186554193496704
-8.747703552246094 0.4077590107917786 -1.5217773914337158
-9.110499382019043 0.40632405877113337 -1.5164220333099365
-9.375027656555176 0.3932424783706665 -1.46760094165802
-9.387274742126465 0.37846529483795166 -1.4124517440795898
-9.542506217956543 0.37091684341430664 -1.3842804431915283
-9.709274291992188 0.3618031144142151 -1.3502675294876099
-9.936738014221191 0.3547992706298828 -1.3241288661956787
-10.161534309387207 0.346884548664093 -1.294590711593628
-10.461894035339355 0.33637240529060364 -1.2553589344024658
-10.757903099060059 0.3253765106201172 -1.2143217325210571
-11.073524475097656 0.31377947330474854 -1.1710408926010132
-11.196924209594727 0.3000155985355377 -1.119673490524292
-11.750286102294922 0.2931988835334778 -1.0942331552505493
-11.813676834106445 0.2768838405609131 -1.0333445072174072
-11.837254524230957 0.26567891240119934 -0.991527259349823
-11.837119102478027 0.2563156485557556 -0.9565830230712892
-11.785061836242676 0.2473711520433426 -0.9232016801834105
-11.686065673828125 0.2422456592321396 -0.9040731191635132
-11.540454864501953 0.23824867606163028 -0.8891561627388
-11.29367733001709 0.23282371461391446 -0.8689099550247192
-10.920622825622559 0.2269172966480255 -0.8468668460845948
-10.62197208404541 0.2202843576669693 -0.8221123814582824
-9.987178802490234 0.21177506446838382 -0.7903552651405334
-9.02706527709961 0.2387180179357529 -0.8909077644348145
-7.715318679809571 0.25500035285949707 -0.9516742825508119
-6.637397766113282 0.2989636957645416 -1.1157476902008057
-5.532098293304443 0.31433311104774475 -1.1731071472167969
-4.7044477462768555 0.32439178228378296 -1.2106465101242065
-3.761363506317139 0.3356190621852875 -1.2525475025177002
-2.861739158630371 0.3419061005115509 -1.2760109901428223
-1.543050765991211 0.35678452253341675 -1.3315379619598389