# vtk DataFile Version 4.0
 
ASCII
DATASET UNSTRUCTURED_GRID
POINTS 51 float
0.0029255072586238384 -0.007558228448033333 0.0006112357950769365
0.0024741466622799635 -0.011123497039079666 -0.0014869922306388617
0.0021053405944257975 -0.014808741398155691 -0.003225454594939947
0.0016511689173057675 -0.018496399745345116 -0.004807775374501944
0.001117104198783636 -0.02217833325266838 -0.006248049437999725
0.0006340054678730667 -0.025752048939466473 -0.007723802700638771
0.0003643686359282583 -0.029045006260275837 -0.009533879347145557
0.0003691194870043546 -0.03216861933469772 -0.011485308408737183
0.000572872522752732 -0.03529646247625351 -0.013277451507747173
0.0008646587957628071 -0.03829639032483101 -0.015139187686145307
0.0011637704446911812 -0.04121899604797363 -0.01698288321495056
0.001422586850821972 -0.044131092727184296 -0.018692824989557266
0.0016198125667870045 -0.04699217900633812 -0.020339161157608032
0.0017542806454002857 -0.04975864291191101 -0.021997423842549324
0.001837961026467383 -0.05243438482284545 -0.02366085723042488
0.0018885409226641061 -0.05504758283495902 -0.025280658155679703
0.001923572504892945 -0.05762430280447006 -0.02681168168783188
0.0019564125686883926 -0.06017052009701728 -0.028243577107787132
0.0019946848042309284 -0.06266872584819794 -0.029606673866510388
0.002041437430307269 -0.06509359925985336 -0.030944813042879108
0.00209671794436872 -0.06742849200963974 -0.03228684887290001
0.002158778952434659 -0.06967297941446304 -0.0336335115134716
0.002224987605586648 -0.07183723896741867 -0.034967172890901566
0.002292493125423789 -0.07393313944339752 -0.03626725822687149
0.0023586952593177557 -0.07596959918737411 -0.03751835227012634
0.0024215481244027615 -0.0779518187046051 -0.03871142864227295
0.0024797271471470594 -0.07988156378269196 -0.03984343633055687
0.0025326928589493036 -0.0817575454711914 -0.04091659560799599
0.0025806704070419073 -0.08357595652341843 -0.041937507688999176
0.002624556189402938 -0.08533110469579697 -0.04291604459285736
0.0026656491681933403 -0.08701669424772263 -0.04386308416724205
0.0027052650693804026 -0.0886276364326477 -0.044787462800741196
0.002744461176916957 -0.09016111493110657 -0.045694056898355484
0.002783895470201969 -0.09161702543497086 -0.046583037823438644
0.0028237823862582445 -0.09299789369106293 -0.04745003208518028
0.0028639202937483788 -0.09430842846632004 -0.04828687384724617
0.0029037625063210726 -0.09555491805076599 -0.04908270761370659
0.0029425176326185465 -0.09674399346113205 -0.0498260036110878
0.002979256911203265 -0.09787990152835846 -0.050509437918663025
0.0030130252707749605 -0.09896211326122284 -0.0511339083313942
0.003042937722057104 -0.09998514503240585 -0.05170893296599388
0.003068262478336692 -0.10093970596790314 -0.05225058272480965
0.003088483354076743 -0.10181434452533723 -0.0527786947786808
0.0031033395789563656 -0.10259491950273514 -0.053317777812480927
0.0031128437258303165 -0.10326395928859712 -0.05389808863401412
0.003117278451099992 -0.10380362719297409 -0.05455050989985466
0.0031171750742942095 -0.10420047491788864 -0.0552983395755291
0.003113273996859789 -0.10444978624582292 -0.056149743497371674
0.0031064755748957396 -0.1045583412051201 -0.057092983275651925
0.003097780514508486 -0.1045450270175934 -0.05809535086154938
0.0030882256105542183 -0.10443929582834245 -0.05910583212971687

CELLS 50 150
2 0 1
2 1 2
2 2 3
2 3 4
2 4 5
2 5 6
2 6 7
2 7 8
2 8 9
2 9 10
2 10 11
2 11 12
2 12 13
2 13 14
2 14 15
2 15 16
2 16 17
2 17 18
2 18 19
2 19 20
2 20 21
2 21 22
2 22 23
2 23 24
2 24 25
2 25 26
2 26 27
2 27 28
2 28 29
2 29 30
2 30 31
2 31 32
2 32 33
2 33 34
2 34 35
2 35 36
2 36 37
2 37 38
2 38 39
2 39 40
2 40 41
2 41 42
2 42 43
2 43 44
2 44 45
2 45 46
2 46 47
2 47 48
2 48 49
2 49 50

CELL_TYPES 50
4
4
4
4
4
4
4
4
4
4
4
4
4
4
4
4
4
4
4
4
4
4
4
4
4
4
4
4
4
4
4
4
4
4
4
4
4
4
4
4
4
4
4
4
4
4
4
4
4
4

POINT_DATA 51

SCALARS zone float
LOOKUP_TABLE default
1.0
1.0
1.0
1.0
1.0
1.0
1.0
1.0
1.0
1.0
1.0
1.0
1.0
1.0
1.0
1.0
1.0
1.0
1.0
1.0
1.0
1.0
1.0
1.0
1.0
1.0
1.0
1.0
1.0
1.0
1.0
1.0
1.0
1.0
1.0
1.0
1.0
1.0
1.0
1.0
1.0
1.0
1.0
1.0
1.0
1.0
1.0
1.0
1.0
1.0
1.0

VECTORS normals float
-0.00022568028362002224 -0.0017826342955231667 -0.0010491140419617295
-0.00041008330299519 -0.003625256707891822 -0.0019183452241122723
-0.0004114889306947589 -0.003686451120302081 -0.0016603915719315407
-0.0004941182560287416 -0.0036847959272563453 -0.0015112973051145673
-0.00050858169561252 -0.0036278243642300367 -0.0014580136630684137
-0.00037636776687577367 -0.00343333650380373 -0.0016429150709882379
-0.00013244299043435603 -0.0032082856632769108 -0.0018807529704645278
0.00010425192886032163 -0.003125727642327547 -0.001871786080300808
0.00024776963982731104 -0.0030638850294053555 -0.0018269395222887397
0.00029544899007305503 -0.00296126795001328 -0.0018527160864323375
0.00027896405663341284 -0.002917352132499218 -0.001776818884536624
0.00022802104649599642 -0.002886590315029025 -0.0016781388549134135
0.00016584688273724169 -0.0028137739282101393 -0.0016522989608347416
0.00010907424439210443 -0.002721103373914957 -0.001660847803577781
6.713013135595247e-5 -0.0026444708928465843 -0.0016416175058111548
4.280570647097193e-5 -0.002594959456473589 -0.0015754125779494643
3.3935823012143373e-5 -0.0025614681653678417 -0.0014814597088843584
3.555617877282202e-5 -0.002522209892049432 -0.001397495623677969
4.251242717145942e-5 -0.0024615400470793247 -0.0013506175018846989
5.1016584620811045e-5 -0.002379884012043476 -0.0013400883181020617
5.867081563337706e-5 -0.002289689378812909 -0.001344348769634962
6.413481605704874e-5 -0.0022043720819056034 -0.0013401610776782036
6.685699190711603e-5 -0.0021300818771123886 -0.0013168741716071963
6.685387052129954e-5 -0.0020661826711148024 -0.0012755896896123886
6.452756497310475e-5 -0.0020093389321118593 -0.0012220842763781548
6.0515933000715456e-5 -0.0019559806678444147 -0.0011625420302152634
5.557234908337704e-5 -0.0019028623355552554 -0.0011025844141840935
5.047163722338155e-5 -0.0018471978837624192 -0.0010470366105437279
4.5931661588838324e-5 -0.0017867786809802053 -0.0009997242596000433
4.24893842136953e-5 -0.0017203696770593526 -0.0009627867257222533
4.035446181660518e-5 -0.0016482677310705183 -0.0009357095113955438
3.940596798202023e-5 -0.0015722080133855343 -0.0009154872968792915
3.931512765120715e-5 -0.001494692638516426 -0.0008977865218184888
3.966056101489812e-5 -0.0014183885650709271 -0.0008779876516200602
4.001240085926838e-5 -0.0013457040768116713 -0.0008519194088876248
3.999012187705375e-5 -0.0012785125290974975 -0.0008163371821865439
3.9298683986999094e-5 -0.001217782380990684 -0.0007695636013522744
3.774720971705392e-5 -0.0011624937178567052 -0.0007133649196475744
3.52538627339527e-5 -0.0011090603657066822 -0.0006539527093991637
3.184030356351286e-5 -0.0010526200057938695 -0.000599748978856951
2.7618556487141177e-5 -0.000988794257864356 -0.0005583369638770819
2.2772850570618175e-5 -0.0009146014926955104 -0.0005348811391741037
1.7538583051646128e-5 -0.0008276076405309141 -0.00053359754383564
1.2180190424260218e-5 -0.0007248050533235073 -0.0005596954142674804
6.969491550989915e-6 -0.0006043515168130398 -0.0006163656944409013
2.165645810237038e-6 -0.00046825761091895407 -0.0007001258200034499
-2.002310793614015e-6 -0.0003230808943044394 -0.0007996178464964032
-5.3496896725846455e-6 -0.0001789365051081404 -0.0008973218500614165
-7.746687515464146e-6 -4.76223613077309e-5 -0.0009728032164275646
-9.125015822064597e-6 5.952404171694071e-5 -0.0010064247762784362
-4.777483354700962e-6 5.28669697814621e-5 -0.0005052409833297133

CELL_DATA 50

VECTORS liftinglineloading               float
0.06634964793920517 0.04606850817799568 -0.06579264998435974
0.05707619711756706 0.04990098252892494 -0.07126598805189133
-0.018476851284503937 0.02654622122645378 -0.03791193291544914
0.13158418238162994 0.051905859261751175 -0.07412925362586975
0.07331830263137817 0.07142766565084457 -0.10200928151607515
-0.3741079270839691 0.141444593667984 -0.20200380682945251
-1.0545620918273926 0.2774384915828705 -0.396223247051239
-2.0302631855010986 0.4246822595596313 -0.6065090894699097
-3.083024501800537 0.5627813935279846 -0.8037351369857788
-4.049989700317383 0.6804149746894836 -0.9717332720756531
-4.86641263961792 0.7606414556503296 -1.0863085985183716
-5.828064918518066 0.859207272529602 -1.2270750999450684
-6.761209487915039 0.9366151690483094 -1.3376251459121704
-6.855999946594239 0.924024224281311 -1.3196433782577515
-7.076605796813965 0.9072136282920837 -1.2956353425979614
-7.538743495941162 0.9151315689086913 -1.3069432973861694
-7.747673988342285 0.9027475714683532 -1.2892571687698364
-8.196907043457031 0.9050275683403015 -1.292513370513916
-8.465529441833496 0.8989869356155396 -1.2838863134384155
-8.605419158935547 0.8998667001724243 -1.2851427793502808
-8.972209930419922 0.8978630304336548 -1.2822812795639038
-9.23580265045166 0.8690747618675233 -1.241167426109314
-9.251750946044922 0.8370077013969421 -1.1953707933425903
-9.408734321594238 0.8209872245788574 -1.1724913120269775
-9.601255416870117 0.8018141388893127 -1.1451092958450317
-9.853930473327637 0.7869876027107239 -1.1239347457885742
-10.147292137145996 0.7697644233703613 -1.0993375778198242
-10.404681205749512 0.7462964057922363 -1.0658217668533325
-10.70143985748291 0.7221330404281616 -1.0313128232955933
-11.020092010498047 0.6966561079025269 -0.9949280023574829
-11.151089668273926 0.666327714920044 -0.9516146183013915
-11.712052345275879 0.6514206528663635 -0.9303251504898071
-11.754608154296875 0.6162720322608948 -0.8801276683807373
-11.780007362365723 0.5913159847259521 -0.8444867730140687
-11.7819185256958 0.5703920722007751 -0.8146042823791505
-11.748723030090332 0.549760639667511 -0.7851395606994629
-11.6464262008667 0.5382370352745056 -0.7686821818351746
-11.494026184082031 0.5293194651603699 -0.7559465765953064
-11.297417640686035 0.5162923336029053 -0.7373418807983398
-10.9236421585083 0.5031667351722717 -0.7185965180397034
-10.625316619873047 0.4884193241596222 -0.6975350975990295
-9.991434097290039 0.4695081114768982 -0.6705271005630493
-9.03225040435791 0.5292124152183533 -0.7557936906814575
-7.7211828231811515 0.5653046369552612 -0.8073386549949646
-6.665110111236572 0.6634304523468018 -0.947476863861084
-5.553850173950195 0.6975892782211304 -0.9962607026100158
-4.721704483032227 0.7198366522789001 -1.0280332565307617
-3.7745037078857426 0.7446572780609131 -1.0634807348251343
-2.8709537982940674 0.7585123181343079 -1.0832679271697998
-1.5475199222564697 0.7913641929626465 -1.1301852464675903