# vtk DataFile Version 4.0
 
ASCII
DATASET UNSTRUCTURED_GRID
POINTS 51 float
0.0029255072586238384 0.007108400575816631 0.002640277612954378
0.0024741466622799635 0.00945288222283125 0.006048665847629309
0.0021053405944257975 0.012058141641318798 0.009181699715554714
0.0016511689173057675 0.014731577597558498 0.012174240313470364
0.001117104198783636 0.01745985634624958 0.015035624615848064
0.0006340054678730667 0.020075062289834023 0.017883429303765297
0.0003643686359282583 0.02229452319443226 0.020915579050779343
0.0003691194870043546 0.024300768971443176 0.024004271253943443
0.000572872522752732 0.026378164067864415 0.026950387284159664
0.0008646587957628071 0.028310218825936317 0.02990551665425301
0.0011637704446911812 0.030179820954799652 0.032811619341373444
0.001422586850821972 0.03209642320871353 0.035592060536146164
0.0016198125667870045 0.0339936763048172 0.03829329460859299
0.0017542806454002857 0.035800132900476456 0.04096534848213196
0.001837961026467383 0.03752218186855316 0.043603748083114624
0.0018885409226641061 0.03920598700642586 0.04617617279291153
0.001923572504892945 0.040894247591495514 0.04865271970629692
0.0019564125686883926 0.04259675741195679 0.05102653428912163
0.0019946848042309284 0.04428483173251152 0.053317707031965256
0.002041437430307269 0.04591699317097664 0.05555526912212372
0.00209671794436872 0.04746595397591591 0.05775833502411842
0.002158778952434659 0.04893102869391441 0.05992738530039787
0.002224987605586648 0.05032888054847717 0.062050748616456985
0.002292493125423789 0.05167897790670395 0.06411479413509369
0.0023586952593177557 0.052995901554822915 0.0661093145608902
0.0024215481244027615 0.054288186132907874 0.06802833080291748
0.0024797271471470594 0.0555587187409401 0.06986982375383377
0.0025326928589493036 0.05680539831519127 0.07163526117801666
0.0025806704070419073 0.05802198499441147 0.07332901656627655
0.002624556189402938 0.059199139475822456 0.07495762407779694
0.0026656491681933403 0.06032657250761986 0.07652829587459564
0.0027052650693804026 0.06139591708779336 0.07804688811302185
0.002744461176916957 0.062402576208114624 0.07951661199331284
0.002783895470201969 0.06334637850522995 0.08093759417533875
0.0028237823862582445 0.06423146277666092 0.08230694383382797
0.0028639202937483788 0.06506554782390594 0.08361923694610596
0.0029037625063210726 0.06585891544818878 0.08486729115247726
0.0029425176326185465 0.06662245839834213 0.08604347705841064
0.002979256911203265 0.06736310571432114 0.0871429294347763
0.0030130252707749605 0.06808001548051834 0.0881662592291832
0.003042937722057104 0.06876417249441147 0.08911975473165512
0.003068262478336692 0.06940039247274399 0.09001407027244568
0.003088483354076743 0.06996989250183105 0.09086234867572784
0.0031033395789563656 0.07044950872659683 0.09168080240488052
0.0031128437258303165 0.07081060856580734 0.09248948842287064
0.003117278451099992 0.07102399319410324 0.09330885857343674
0.0031171750742942095 0.07106760889291763 0.09415433555841446
0.003113273996859789 0.0709337443113327 0.09503133594989777
0.0031064755748957396 0.07063350826501846 0.09593208134174347
0.003097780514508486 0.07019782066345215 0.09683490544557571
0.0030882256105542183 0.06967494636774063 0.09770602732896805

CELLS 50 150
2 0 1
2 1 2
2 2 3
2 3 4
2 4 5
2 5 6
2 6 7
2 7 8
2 8 9
2 9 10
2 10 11
2 11 12
2 12 13
2 13 14
2 14 15
2 15 16
2 16 17
2 17 18
2 18 19
2 19 20
2 20 21
2 21 22
2 22 23
2 23 24
2 24 25
2 25 26
2 26 27
2 27 28
2 28 29
2 29 30
2 30 31
2 31 32
2 32 33
2 33 34
2 34 35
2 35 36
2 36 37
2 37 38
2 38 39
2 39 40
2 40 41
2 41 42
2 42 43
2 43 44
2 44 45
2 45 46
2 46 47
2 47 48
2 48 49
2 49 50

CELL_TYPES 50
4
4
4
4
4
4
4
4
4
4
4
4
4
4
4
4
4
4
4
4
4
4
4
4
4
4
4
4
4
4
4
4
4
4
4
4
4
4
4
4
4
4
4
4
4
4
4
4
4
4

POINT_DATA 51

SCALARS zone float
LOOKUP_TABLE default
1.0
1.0
1.0
1.0
1.0
1.0
1.0
1.0
1.0
1.0
1.0
1.0
1.0
1.0
1.0
1.0
1.0
1.0
1.0
1.0
1.0
1.0
1.0
1.0
1.0
1.0
1.0
1.0
1.0
1.0
1.0
1.0
1.0
1.0
1.0
1.0
1.0
1.0
1.0
1.0
1.0
1.0
1.0
1.0
1.0
1.0
1.0
1.0
1.0
1.0
1.0

VECTORS normals float
-0.00022568028362002224 0.0011722405906766653 0.0017041940009221432
-0.00041008330299519 0.0024748705327510834 0.0032707108184695244
-0.0004114889306947589 0.0026393476873636246 0.003062787465751171
-0.0004941182560287416 0.002700857352465391 0.0029269626829773188
-0.00050858169561252 0.0026717421133071184 0.0028545940294861794
-0.00037636776687577367 0.0024173336569219828 0.0029399774502962828
-0.00013244299043435603 0.002112853806465864 0.003060421207919717
0.00010425192886032163 0.0020418204367160797 0.003017403883859515
0.00024776963982731104 0.002004724694415927 0.0029506233986467123
0.00029544899007305503 0.0019008284434676168 0.0029306169599294662
0.00027896405663341284 0.001893102889880538 0.002843271242454648
0.00022802104649599642 0.0019069270929321649 0.002740836003795266
0.00016584688273724169 0.0018518534488976002 0.0026866437401622534
0.00010907424439210443 0.0017642525490373373 0.002655227202922106
6.713013135595247e-5 0.0017029270529747007 0.0026054123882204294
4.280570647097193e-5 0.0016860337927937505 0.002524486044421792
3.3935823012143373e-5 0.001695386599749327 0.0024251816794276237
3.555617877282202e-5 0.0016952912556007504 0.00233249319717288
4.251242717145942e-5 0.0016601172974333165 0.002264366950839758
5.1016584620811045e-5 0.0015905617037788033 0.0022203149273991585
5.867081563337706e-5 0.0015070169465616345 0.002186058321967721
6.413481605704874e-5 0.0014314630534499884 0.0021462063305079937
6.685699190711603e-5 0.0013739747228100896 0.0020937048830091953
6.685387052129954e-5 0.0013335099210962653 0.00202928320504725
6.452756497310475e-5 0.0013046044623479247 0.0019567678682506084
6.0515933000715456e-5 0.0012814090587198734 0.0018802540143951774
5.557234908337704e-5 0.0012586066732183099 0.001803465187549591
5.047163722338155e-5 0.0012316330103203654 0.001729596988297999
4.5931661588838324e-5 0.0011968697654083371 0.0016611831961199643
4.24893842136953e-5 0.0011522931745275855 0.0015996407018974426
4.035446181660518e-5 0.001098389970138669 0.001544628874398768
3.940596798202023e-5 0.0010380027815699577 0.0014941571280360222
3.931512765120715e-5 0.0009752306505106391 0.0014453553594648838
3.966056101489812e-5 0.0009144429932348429 0.0013951639411970973
4.001240085926838e-5 0.0008595854160375893 0.0013408203376457095
3.999012187705375e-5 0.0008137269178405404 0.0012801755219697952
3.9298683986999094e-5 0.0007784540066495538 0.00121211854275316
3.774720971705392e-5 0.000752096064388752 0.0011378192575648427
3.52538627339527e-5 0.0007287777261808515 0.0010613916674628854
3.184030356351286e-5 0.0007005328661762178 0.000988413579761982
2.7618556487141177e-5 0.0006601885543204844 0.0009239076753146945
2.2772850570618175e-5 0.0006028599455021322 0.0008712942362762988
1.7538583051646128e-5 0.0005245591746643186 0.0008333657169714571
1.2180190424260218e-5 0.00042035896331071854 0.0008135722018778324
6.969491550989915e-6 0.00028724109870381653 0.0008140269783325492
2.165645810237038e-6 0.00012849958147853613 0.0008324236841872334
-2.002310793614015e-6 -4.512236046139151e-5 0.0008612397941760719
-5.3496896725846455e-6 -0.0002170530497096479 0.0008888716110959649
-7.746687515464146e-6 -0.00036796389031223953 0.0009017852135002613
-9.125015822064597e-6 -0.00047928059939295053 0.0008869746816344559
-4.777483354700962e-6 -0.00026143781724385917 0.0004355613200459629

CELL_DATA 50

VECTORS liftinglineloading               float
0.07639160752296448 -0.0758957490324974 0.04381842911243439
0.0888185203075409 -0.10476060211658476 0.06048355996608734
-0.037098903208971024 -0.03432686999440193 0.019818628206849098
0.123658187687397 -0.07254043221473694 0.04188123717904091
0.11207212507724763 -0.0954081118106842 0.055083900690078735
-0.29045096039772034 -0.19289296865463257 0.11136680096387865
-0.9400110244750977 -0.3907759189605713 0.2256145775318146
-1.9014650583267214 -0.6172082424163818 0.35634535551071167
-2.895369529724121 -0.8207056522369385 0.4738346338272094
-3.8686211109161377 -1.0035914182662964 0.579423725605011
-4.722504615783691 -1.1334173679351807 0.6543788313865662
-5.673166751861572 -1.2808952331542969 0.7395251989364624
-6.591510772705077 -1.397884488105774 0.8070690035820007
-6.70783281326294 -1.3844352960586548 0.7993041276931763
-6.871610641479492 -1.3540301322937012 0.7817496657371521
-7.391684055328368 -1.37333345413208 0.7928944230079651
-7.583687782287598 -1.3557021617889404 0.7827149629592896
-8.05154800415039 -1.363961100578308 0.787483274936676
-8.324661254882812 -1.3559080362319946 0.7828338742256165
-8.538421630859375 -1.3595229387283325 0.7849209308624268
-8.918907165527344 -1.3579317331314087 0.7840022444725037
-9.200217247009277 -1.3150103092193604 0.759221613407135
-9.239423751831055 -1.26739501953125 0.7317308187484741
-9.418797492980957 -1.2437189817428589 0.7180615067481995
-9.620461463928223 -1.214822769165039 0.7013782858848572
-9.869755744934082 -1.1921645402908325 0.6882964968681335
-10.15705680847168 -1.1659191846847534 0.673143744468689
-10.402711868286133 -1.1301747560501099 0.6525067090988159
-10.68431282043457 -1.093587875366211 0.6313832402229309
-10.983537673950195 -1.0553032159805298 0.6092796325683594
-11.119368553161621 -1.0093835592269897 0.5827678442001343
-11.659379005432129 -0.987822115421295 0.5703193545341492
-11.690234184265137 -0.9355519413948058 0.5401411652565002
-11.701789855957031 -0.898079514503479 0.5185064673423767
-11.688530921936035 -0.8666036128997803 0.500333845615387
-11.628080368041992 -0.8361597657203673 0.4827570617198944
-11.518243789672852 -0.8183166980743409 0.47245538234710693
-11.36013412475586 -0.8044791221618652 0.46446624398231506
-11.158661842346191 -0.784584105014801 0.4529798328876496
-10.78752326965332 -0.7642205953598022 0.4412229657173157
-10.49042797088623 -0.7415356040000916 0.4281257688999176
-9.862494468688965 -0.7111531496047974 0.41058444976806646
-8.91755199432373 -0.8002866506576538 0.46204569935798645
-7.614776611328125 -0.8533642292022705 0.49269005656242365
-6.547664642333984 -0.9978364109992981 0.5761011242866516
-5.452239990234375 -1.0479305982589722 0.6050229668617249
-4.633304119110107 -1.081046462059021 0.6241424679756165
-3.7000949382781982 -1.1181098222732544 0.6455410122871399
-2.8122408390045166 -1.1385738849639893 0.6573559045791626
-1.5144600868225098 -1.187991738319397 0.6858873963356018