# vtk DataFile Version 4.0
 
ASCII
DATASET UNSTRUCTURED_GRID
POINTS 51 float
0.0029255072586238384 0.0032497686333954334 -0.006851235870271921
0.0024741466622799635 0.006849521771073341 -0.008889734745025635
0.0021053405944257975 0.010197696276009083 -0.011212019249796867
0.0016511689173057675 0.013411855325102806 -0.013614464551210405
0.001117104198783636 0.016500135883688927 -0.016082976013422012
0.0006340054678730667 0.019565032795071602 -0.01844002678990364
0.0003643686359282583 0.022779084742069244 -0.020386774092912674
0.0003691194870043546 0.026030879467725757 -0.02211618795990944
0.000572872522752732 0.029146840795874596 -0.02392890676856041
0.0008646587957628071 0.03225911408662796 -0.025596052408218384
0.0011637704446911812 0.035317108035087585 -0.02720525674521923
0.001422586850821972 0.03825400769710541 -0.028872234746813774
0.0016198125667870045 0.0411103181540966 -0.030526839196681976
0.0017542806454002857 0.04392964765429497 -0.032093536108732224
0.001837961026467383 0.04670809581875801 -0.033579081296920776
0.0018885409226641061 0.04941748455166817 -0.035032276064157486
0.001923572504892945 0.0520317479968071 -0.03649827092885971
0.0019564125686883926 0.05454491451382637 -0.03798741102218628
0.0019946848042309284 0.056974492967128754 -0.03946936875581741
0.002041437430307269 0.059345792979002006 -0.04090030491352081
0.00209671794436872 0.06167547777295112 -0.042251359671354294
0.002158778952434659 0.06396396458148956 -0.04352181404829025
0.002224987605586648 0.06620107591152191 -0.044729284942150116
0.002292493125423789 0.06837493926286697 -0.04589435085654259
0.0023586952593177557 0.07047664374113083 -0.0470324270427227
0.0024215481244027615 0.07250098884105682 -0.04815254360437393
0.0024797271471470594 0.07444620877504349 -0.04925774410367012
0.0025326928589493036 0.07631358504295349 -0.05034581199288368
0.0025806704070419073 0.07810692489147186 -0.05141014978289605
0.002624556189402938 0.07983193546533585 -0.05244088172912597
0.0026656491681933403 0.08149489015340805 -0.05342712998390198
0.0027052650693804026 0.08310090005397797 -0.054360054433345795
0.002744461176916957 0.08465277403593063 -0.05523478612303734
0.002783895470201969 0.08615060150623322 -0.056051149964332574
0.0028237823862582445 0.08759187906980515 -0.056813519448041916
0.0028639202937483788 0.08897187560796738 -0.05753006041049957
0.0029037625063210726 0.0902843251824379 -0.05821163207292557
0.0029425176326185465 0.09152258187532425 -0.05886975675821304
0.002979256911203265 0.09268240630626678 -0.05951176583766938
0.0030130252707749605 0.09376432001590729 -0.06013675406575203
0.003042937722057104 0.09477382153272629 -0.06073520705103875
0.003068262478336692 0.09572018682956696 -0.06129105761647225
0.003088483354076743 0.09661486744880676 -0.06178446114063263
0.0031033395789563656 0.09747201204299927 -0.06219092011451721
0.0031128437258303165 0.09830909222364426 -0.06248016655445099
0.003117278451099992 0.09914393723011017 -0.06262131780385971
0.0031171750742942095 0.09999000281095505 -0.0625910833477974
0.003113273996859789 0.10085199773311615 -0.06238129734992981
0.0031064755748957396 0.10172314196825027 -0.062003690749406815
0.003097780514508486 0.1025845631957054 -0.0614909753203392
0.0030882256105542183 0.10340680181980133 -0.06089416891336441

CELLS 50 150
2 0 1
2 1 2
2 2 3
2 3 4
2 4 5
2 5 6
2 6 7
2 7 8
2 8 9
2 9 10
2 10 11
2 11 12
2 12 13
2 13 14
2 14 15
2 15 16
2 16 17
2 17 18
2 18 19
2 19 20
2 20 21
2 21 22
2 22 23
2 23 24
2 24 25
2 25 26
2 26 27
2 27 28
2 28 29
2 29 30
2 30 31
2 31 32
2 32 33
2 33 34
2 34 35
2 35 36
2 36 37
2 37 38
2 38 39
2 39 40
2 40 41
2 41 42
2 42 43
2 43 44
2 44 45
2 45 46
2 46 47
2 47 48
2 48 49
2 49 50

CELL_TYPES 50
4
4
4
4
4
4
4
4
4
4
4
4
4
4
4
4
4
4
4
4
4
4
4
4
4
4
4
4
4
4
4
4
4
4
4
4
4
4
4
4
4
4
4
4
4
4
4
4
4
4

POINT_DATA 51

SCALARS zone float
LOOKUP_TABLE default
1.0
1.0
1.0
1.0
1.0
1.0
1.0
1.0
1.0
1.0
1.0
1.0
1.0
1.0
1.0
1.0
1.0
1.0
1.0
1.0
1.0
1.0
1.0
1.0
1.0
1.0
1.0
1.0
1.0
1.0
1.0
1.0
1.0
1.0
1.0
1.0
1.0
1.0
1.0
1.0
1.0
1.0
1.0
1.0
1.0
1.0
1.0
1.0
1.0
1.0
1.0

VECTORS normals float
-0.00022568028362002224 0.001799876568838954 -0.0010192496702075005
-0.00041008330299519 0.003473964054137468 -0.002180391689762473
-0.0004114889306947589 0.0032811670098453756 -0.0023623646702617407
-0.0004941182560287416 0.003151219803839922 -0.002435478148981929
-0.00050858169561252 0.0030765889678150415 -0.0024127811193466187
-0.00037636776687577367 0.003139474429190159 -0.002151899039745331
-0.00013244299043435603 0.003232922637835145 -0.0018380804685875776
0.00010425192886032163 0.0031838782597333193 -0.0017710665706545117
0.00024776963982731104 0.0031141184736043215 -0.001739932456985116
0.00029544899007305503 0.0030851331539452076 -0.0016381752211600544
0.00027896405663341284 0.0029974463395774364 -0.0016380916349589823
0.00022802104649599642 0.0028966059908270836 -0.0016607909929007292
0.00016584688273724169 0.0028378197457641363 -0.0016106502152979372
0.00010907424439210443 0.002798887901008129 -0.0015261207008734345
6.713013135595247e-5 0.0027439179830253124 -0.0014693702105432749
4.280570647097193e-5 0.0026618270203471184 -0.0014595944667235017
3.3935823012143373e-5 0.002563715912401676 -0.0014775666641071439
3.555617877282202e-5 0.0024713717866688967 -0.0014855499612167478
4.251242717145942e-5 0.0024004389997571707 -0.001456447527743876
5.1016584620811045e-5 0.00235049263574183 -0.0013909959234297276
5.867081563337706e-5 0.0023090848699212074 -0.0013107546838000417
6.413481605704874e-5 0.00226279953494668 -0.0012389617040753365
6.685699190711603e-5 0.0022054873406887054 -0.00118626793846488
6.685387052129954e-5 0.002137784380465746 -0.001151571748778224
6.452756497310475e-5 0.002063025487586856 -0.0011290964903309941
6.0515933000715456e-5 0.001984781352803111 -0.0011126580648124218
5.557234908337704e-5 0.001906297286041081 -0.0010966348927468061
5.047163722338155e-5 0.0018303592223674059 -0.001076202024705708
4.5931661588838324e-5 0.0017591759096831083 -0.0010475337039679289
4.24893842136953e-5 0.0016939826309680939 -0.0010084904497489333
4.035446181660518e-5 0.0016344820614904167 -0.0009595869923941791
3.940596798202023e-5 0.0015789392637088895 -0.0009038284770213066
3.931512765120715e-5 0.0015248522395268083 -0.0008455485804006457
3.966056101489812e-5 0.0014695539139211178 -0.0007893666625022888
4.001240085926838e-5 0.0014106358867138624 -0.0007394542335532606
3.999012187705375e-5 0.0013462250353768468 -0.0006990557885728776
3.9298683986999094e-5 0.0012753527844324708 -0.0006698486395180225
3.774720971705392e-5 0.0011990390485152602 -0.0006500666495412588
3.52538627339527e-5 0.001120869885198772 -0.0006334981299005449
3.184030356351286e-5 0.0010457078460603952 -0.0006117211887612939
2.7618556487141177e-5 0.0009779310785233974 -0.0005771524738520384
2.2772850570618175e-5 0.0009205213864333927 -0.0005246275686658919
1.7538583051646128e-5 0.0008759128395467997 -0.00044993046321906155
1.2180190424260218e-5 0.0008471129694953561 -0.0003478518920019269
6.969491550989915e-6 0.0008359641069546341 -0.00021520092559512705
2.165645810237038e-6 0.0008404555264860392 -5.5460095609305426e-5
-2.002310793614015e-6 0.0008540298440493644 0.00012001264985883607
-5.3496896725846455e-6 0.0008665717905387282 0.0002936973760370165
-7.746687515464146e-6 0.0008662834879942238 0.00044515944318845874
-9.125015822064597e-6 0.0008418274228461087 0.0005547617329284549
-4.777483354700962e-6 0.00041111806058324873 0.0002984046295750886

CELL_DATA 50

VECTORS liftinglineloading               float
0.009556883946061134 0.007277166470885276 0.015605933964252472
0.012391118332743645 0.014426358044147493 0.03093742392957211
0.04607345163822174 0.0355527400970459 0.076243095099926
0.007760704495012761 0.05455252900719643 0.11698827147483824
-0.235121488571167 0.09346835315227509 0.20044353604316711
-0.8229464888572693 0.1531817764043808 0.32849937677383423
-1.552392601966858 0.24911117553710938 0.5342206358909607
-2.4383888244628906 0.3401777446269989 0.7295135855674744
-3.479660511016846 0.4371680021286011 0.9375097751617432
-4.462268352508545 0.5219277143478394 1.1192775964736938
-5.243615627288818 0.5765533447265625 1.2364226579666138
-6.1724019050598145 0.6476874947547913 1.3889703750610352
-7.089614391326903 0.7025638818740845 1.506653070449829
-7.13967227935791 0.688847541809082 1.4772382974624634
-7.448792457580566 0.6809196472167969 1.46023690700531
-7.946630954742432 0.6869614124298096 1.4731935262680054
-8.209013938903809 0.6770147085189819 1.4518626928329468
-8.638111114501953 0.6736767888069153 1.4447046518325806
-8.950797080993652 0.6690555810928345 1.434794306755066
-9.064321517944336 0.671015202999115 1.4389967918395996
-9.420415878295898 0.6667184829711914 1.4297823905944824
-9.667728424072266 0.6449296474456787 1.3830561637878418
-9.63744831085205 0.6194897294044495 1.3285000324249268
-9.741973876953125 0.605867862701416 1.2992877960205078
-9.853772163391113 0.5897232890129089 1.2646657228469849
-10.037642478942871 0.577672004699707 1.2388216257095337
-10.287752151489258 0.5644313097000122 1.210426926612854
-10.526824951171875 0.5472241640090942 1.1735259294509888
-10.80864429473877 0.5292969346046448 1.1350809335708618
-11.123157501220703 0.5102713704109192 1.094280481338501
-11.251358985900879 0.4875872135162353 1.045634150505066
-11.812678337097168 0.47597610950469976 1.0207340717315674
-11.875673294067383 0.4489611983299255 0.9628003835678101
-11.92184829711914 0.43031737208366394 0.9228186011314392
-11.941047668457031 0.4148298501968384 0.8896055221557618
-11.904544830322266 0.40022894740104675 0.8582937717437744
-11.815475463867188 0.3920583426952362 0.8407717943191529
-11.673690795898438 0.38575389981269836 0.82725191116333
-11.479989051818848 0.37630894780158997 0.8069971203804016
-11.10269546508789 0.36707884073257446 0.7872031331062317
-10.799663543701172 0.3565898835659027 0.76470947265625
-10.152047157287598 0.34399160742759705 0.7376923561096191
-9.16820240020752 0.3885934352874756 0.833341360092163
-7.841796398162843 0.415995717048645 0.8921056985855101
-6.751420974731446 0.4892610013484955 1.04922354221344
-5.6289963722229 0.5149601697921753 1.1043356657028198
-4.785873889923096 0.5314739942550659 1.1397496461868286
-3.8273227214813237 0.5498383045196533 1.179132103919983
-2.911614418029785 0.5601508617401123 1.2012474536895752
-1.5699223279953003 0.5843532681465149 1.2531496286392212