# vtk DataFile Version 4.0
 
ASCII
DATASET UNSTRUCTURED_GRID
POINTS 51 float
0.0029255072586238384 0.007549542002379894 0.0007105228723958135
0.0024741466622799635 0.010696292854845524 0.0033959764987230305
0.0021053405944257975 0.01402366906404495 0.005747963674366474
0.0016511689173057675 0.01738053560256958 0.007946600206196308
0.001117104198783636 0.0207564327865839 0.010004354640841484
0.0006340054678730667 0.024019593372941017 0.012078257277607918
0.0003643686359282583 0.02694820612668991 0.014432650990784168
0.0003691194870043546 0.029685502871870995 0.016896843910217285
0.000572872522752732 0.03245462477207184 0.01920490339398384
0.0008646587957628071 0.03508568927645683 0.02155928686261177
0.0011637704446911812 0.03764374181628227 0.023882480338215828
0.001422586850821972 0.040214668959379196 0.02607212401926517
0.0016198125667870045 0.042746402323246 0.02819027006626129
0.0017542806454002857 0.045182883739471436 0.030303731560707092
0.001837961026467383 0.04752912372350693 0.032406531274318695
0.0018885409226641061 0.04982134699821472 0.03445550054311752
0.001923572504892945 0.05209306254982948 0.03641070798039436
0.0019564125686883926 0.05435194820165635 0.038262996822595596
0.0019946848042309284 0.05657549947500229 0.040039192885160446
0.002041437430307269 0.05873117223381996 0.0417780764400959
0.00209671794436872 0.06079754978418351 0.04350517690181732
0.002158778952434659 0.06277409195899963 0.045221127569675446
0.002224987605586648 0.06467387825250626 0.046910349279642105
0.002292493125423789 0.06651218980550766 0.04855463281273842
0.0023586952593177557 0.06830045580863953 0.050140347331762314
0.0024215481244027615 0.07004538923501968 0.05165950581431389
0.0024797271471470594 0.0717492401599884 0.053109411150217056
0.0025326928589493036 0.07341036945581436 0.054492030292749405
0.0025806704070419073 0.07502388209104538 0.05581319704651833
0.002624556189402938 0.07658243924379349 0.057081643491983414
0.0026656491681933403 0.07807797193527222 0.058306995779275894
0.0027052650693804026 0.07950392365455627 0.05949706956744194
0.002744461176916957 0.08085667341947556 0.06065617501735688
0.002783895470201969 0.08213609457015991 0.06178446486592293
0.0028237823862582445 0.0833454355597496 0.0628780722618103
0.0028639202937483788 0.08449074625968933 0.06392977386713028
0.0029037625063210726 0.08558009564876556 0.06492996960878372
0.0029425176326185465 0.08662204444408417 0.06586845219135284
0.002979256911203265 0.0876220166683197 0.06673875451087952
0.0030130252707749605 0.08857934921979904 0.06754165887832642
0.003042937722057104 0.0894869789481163 0.06828559935092926
0.003068262478336692 0.0903329849243164 0.06898477673530579
0.003088483354076743 0.09110262989997864 0.06965674459934235
0.0031033395789563656 0.0917777419090271 0.07032318413257599
0.0031128437258303165 0.09233584254980087 0.07101085036993027
0.003117278451099992 0.09275401383638382 0.0717470720410347
0.0031171750742942095 0.09301497787237167 0.07255245745182037
0.003113273996859789 0.09311265498399734 0.07343421876430511
0.0031064755748957396 0.09305577725172043 0.07438197731971741
0.003097780514508486 0.09286860376596451 0.0753668025135994
0.0030882256105542183 0.09258900582790375 0.07634357362985611

CELLS 50 150
2 0 1
2 1 2
2 2 3
2 3 4
2 4 5
2 5 6
2 6 7
2 7 8
2 8 9
2 9 10
2 10 11
2 11 12
2 12 13
2 13 14
2 14 15
2 15 16
2 16 17
2 17 18
2 18 19
2 19 20
2 20 21
2 21 22
2 22 23
2 23 24
2 24 25
2 25 26
2 26 27
2 27 28
2 28 29
2 29 30
2 30 31
2 31 32
2 32 33
2 33 34
2 34 35
2 35 36
2 36 37
2 37 38
2 38 39
2 39 40
2 40 41
2 41 42
2 42 43
2 43 44
2 44 45
2 45 46
2 46 47
2 47 48
2 48 49
2 49 50

CELL_TYPES 50
4
4
4
4
4
4
4
4
4
4
4
4
4
4
4
4
4
4
4
4
4
4
4
4
4
4
4
4
4
4
4
4
4
4
4
4
4
4
4
4
4
4
4
4
4
4
4
4
4
4

POINT_DATA 51

SCALARS zone float
LOOKUP_TABLE default
1.0
1.0
1.0
1.0
1.0
1.0
1.0
1.0
1.0
1.0
1.0
1.0
1.0
1.0
1.0
1.0
1.0
1.0
1.0
1.0
1.0
1.0
1.0
1.0
1.0
1.0
1.0
1.0
1.0
1.0
1.0
1.0
1.0
1.0
1.0
1.0
1.0
1.0
1.0
1.0
1.0
1.0
1.0
1.0
1.0
1.0
1.0
1.0
1.0
1.0
1.0

VECTORS normals float
-0.00022568028362002224 0.0015733754262328148 0.0013427268713712692
-0.00041008330299519 0.003237063763663173 0.0025187204591929913
-0.0004114889306947589 0.003342121839523315 0.0022753120865672827
-0.0004941182560287416 0.00336638162843883 0.002128195483237505
-0.00050858169561252 0.003319527953863144 0.002065828302875161
-0.00037636776687577367 0.0030958871357142925 0.002214148174971342
-0.00013244299043435603 0.0028329554479569197 0.00240929308347404
0.00010425192886032163 0.002753208624199033 0.00238612643443048
0.00024776963982731104 0.0027000929694622755 0.0023312224075198174
0.00029544899007305503 0.0025945587549358606 0.002338788006454706
0.00027896405663341284 0.002564489608630538 0.002256417879834771
0.00022802104649599642 0.0025513307191431522 0.002153895329684019
0.00016584688273724169 0.0024841076228767633 0.002115803537890315
0.00010907424439210443 0.002391360467299819 0.002108130371198058
6.713013135595247e-5 0.002319231629371643 0.0020758851896971464
4.280570647097193e-5 0.002281968481838703 0.002002088585868478
3.3935823012143373e-5 0.0022653008345514536 0.001903747208416462
3.555617877282202e-5 0.002241219161078334 0.0018142417538911104
4.251242717145942e-5 0.0021896115504205227 0.0017575405072420835
5.1016584620811045e-5 0.0021110244560986757 0.0017329918919131158
5.867081563337706e-5 0.0020214600954204798 0.0017215254483744502
6.413481605704874e-5 0.0019381662132218478 0.0017025861889123914
6.685699190711603e-5 0.001869048341177404 0.0016667527379468081
6.685387052129954e-5 0.0018132887780666353 0.0016149993753060699
6.452756497310475e-5 0.0017665998311713338 0.0015524360351264477
6.0515933000715456e-5 0.001724391710013151 0.0014845328405499458
5.557234908337704e-5 0.0016824917402118444 0.0014162622392177582
5.047163722338155e-5 0.0016373187536373737 0.0013518923660740256
4.5931661588838324e-5 0.0015860332641750574 0.0012948070652782917
4.24893842136953e-5 0.0015270471340045333 0.0012468989007174969
4.035446181660518e-5 0.001460742554627359 0.0012077126884832978
3.940596798202023e-5 0.0013893499271944165 0.0011745900847017765
3.931512765120715e-5 0.0013160859234631062 0.0011436977656558156
3.966056101489812e-5 0.0012443790910765529 0.0011109496699646115
4.001240085926838e-5 0.0011773256119340658 0.0010726558975875378
3.999012187705375e-5 0.001117333653382957 0.0010259465780109167
3.9298683986999094e-5 0.0010656481608748436 0.0009693378815427421
3.774720971705392e-5 0.0010209582978859544 0.0009043922182172537
3.52538627339527e-5 0.0009786535520106554 0.000836604041978717
3.184030356351286e-5 0.0009324830025434494 0.00077342294389382
2.7618556487141177e-5 0.000876818026881665 0.0007215568912215531
2.2772850570618175e-5 0.0008078255341388286 0.000685573962982744
1.7538583051646128e-5 0.0007223761640489101 0.0006692035822197795
1.2180190424260218e-5 0.0006166035891510546 0.0006770534673705697
6.969491550989915e-6 0.0004881392815150321 0.0007119462243281305
2.165645810237038e-6 0.00033956815605051816 0.0007708013872615993
-2.002310793614015e-6 0.00017932039918377995 0.0008435722556896508
-5.3496896725846455e-6 2.0399753339006566e-5 0.0009147615055553614
-7.746687515464146e-6 -0.00012202663492644207 0.0009662936790846288
-9.125015822064597e-6 -0.00023338357277680186 0.0009807987371459603
-4.777483354700962e-6 -0.00013979797950014472 0.0004883849760517478

CELL_DATA 50

VECTORS liftinglineloading               float
0.023937135934829712 -0.027613529935479164 0.027613529935479164
-0.007491782773286104 -0.008655562065541744 0.008655562065541744
0.05477458983659744 -0.05582980439066887 0.05582980439066887
0.05089392885565758 -0.08488063514232635 0.08488063514232635
-0.14486393332481384 -0.13918709754943848 0.13918709754943848
-0.7054029107093811 -0.23639126121997836 0.23639126121997836
-1.4059159755706787 -0.3985104262828827 0.3985104262828827
-2.2984042167663574 -0.5546913146972656 0.5546913146972656
-3.3222439289093018 -0.7160751819610596 0.7160751819610596
-4.3092360496521 -0.8597987890243531 0.8597987890243531
-5.049652099609375 -0.9486413598060607 0.9486413598060607
-6.05307149887085 -1.0747241973876953 1.0747241973876953
-7.000807285308838 -1.1701666116714478 1.1701666116714478
-7.0862956047058105 -1.1510469913482666 1.1510469913482666
-7.283929824829102 -1.1300188302993774 1.1300188302993774
-7.813138008117676 -1.1433278322219849 1.1433278322219849
-8.09305191040039 -1.1292695999145508 1.1292695999145508
-8.554980278015137 -1.1270787715911865 1.1270787715911865
-8.884766578674316 -1.1203360557556152 1.1203360557556152
-9.094305992126465 -1.1263420581817627 1.1263420581817627
-9.481660842895508 -1.1200346946716309 1.1200346946716309
-9.759864807128906 -1.0842019319534302 1.0842019319534302
-9.758358001708984 -1.0417976379394531 1.0417976379394531
-9.890571594238281 -1.0187714099884033 1.0187714099884033
-10.009068489074707 -0.9906413555145265 0.9906413555145265
-10.24288272857666 -0.9694377779960632 0.9694377779960632
-10.522969245910645 -0.9459409713745116 0.9459409713745116
-10.803524017333984 -0.9164511561393738 0.9164511561393738
-11.111781120300293 -0.8851798176765442 0.8851798176765442
-11.44257926940918 -0.8516970872879027 0.8516970872879027
-11.57370376586914 -0.8118692636489868 0.8118692636489868
-12.01325798034668 -0.7929883003234863 0.7929883003234863
-12.060065269470215 -0.746674656867981 0.746674656867981
-12.086870193481445 -0.7161776423454285 0.7161776423454285
-12.08482837677002 -0.691137969493866 0.691137969493866
-12.027612686157227 -0.6676099896430969 0.6676099896430969
-11.91845703125 -0.6547755599021912 0.6547755599021912
-11.758035659790039 -0.6448236703872681 0.6448236703872681
-11.564881324768066 -0.6294561624526978 0.6294561624526978
-11.173015594482422 -0.614385724067688 0.614385724067688
-10.877372741699219 -0.5967686176300049 0.5967686176300049
-10.213988304138184 -0.5762941241264343 0.5762941241264343
-9.214666366577148 -0.651311993598938 0.651311993598938
-7.8765869140625 -0.6974328756332397 0.6974328756332397
-6.771664142608643 -0.820280373096466 0.820280373096466
-5.642998695373535 -0.8632743954658507 0.8632743954658507
-4.7954421043396 -0.8908230662345886 0.8908230662345886
-3.8332982063293457 -0.9214789867401123 0.9214789867401123
-2.914964199066162 -0.9386500716209412 0.9386500716209412
-1.58005690574646 -0.9804952144622803 0.9804952144622803