# vtk DataFile Version 4.0
 
ASCII
DATASET UNSTRUCTURED_GRID
POINTS 51 float
0.0029255072586238384 0.0025466219522058964 0.007142488844692708
0.0024741466622799635 0.0014426487032324076 0.01112933550029993
0.0021053405944257975 0.0007172345067374408 0.015138954855501652
0.0016511689173057675 0.00014326605014503002 0.01911049336194992
0.001117104198783636 -0.0002949770714621991 0.023039739578962326
0.0006340054678730667 -0.0007955000037327409 0.026873635128140453
0.0003643686359282583 -0.0016916196327656507 0.030522871762514114
0.0003691194870043546 -0.00276810466311872 0.03404511883854866
0.000572872522752732 -0.0036896369419991966 0.03753022104501724
0.0008646587957628071 -0.004711497575044632 0.0409097820520401
0.0011637704446911812 -0.005735944490879774 0.04420998692512512
0.001422586850821972 -0.006633915472775698 0.04746542125940323
0.0016198125667870045 -0.007483650930225849 0.050655119121074677
0.0017542806454002857 -0.00836939550936222 0.053756508976221085
0.001837961026467383 -0.00928361527621746 0.05677160620689393
0.0018885409226641061 -0.010171878151595592 0.05971499904990196
0.001923572504892945 -0.010983829386532307 0.06260018050670624
0.0019564125686883926 -0.011707925237715244 0.06543023139238358
0.0019946848042309284 -0.01237799134105444 0.06819611042737961
0.002041437430307269 -0.013042930513620377 0.07088469713926315
0.00209671794436872 -0.013734924606978893 0.07348737120628357
0.002158778952434659 -0.01445478294044733 0.07600392401218414
0.002224987605586648 -0.015182849951088428 0.0784396082162857
0.002292493125423789 -0.015896176919341087 0.08080058544874191
0.0023586952593177557 -0.016577566042542458 0.08309146016836166
0.0024215481244027615 -0.01721695065498352 0.08531492948532104
0.0024797271471470594 -0.01781093329191208 0.08747190237045288
0.0025326928589493036 -0.01836198754608631 0.08956171572208405
0.0025806704070419073 -0.01887747272849083 0.09158240258693695
0.002624556189402938 -0.019368400797247887 0.09353100508451462
0.0026656491681933403 -0.019846905022859573 0.09540427476167679
0.0027052650693804026 -0.02032284624874592 0.09719957411289215
0.002744461176916957 -0.02080165594816208 0.09891544282436371
0.002783895470201969 -0.021283527836203575 0.10055182874202728
0.0028237823862582445 -0.02176358737051487 0.10211003571748732
0.0028639202937483788 -0.022232722491025925 0.10359251499176025
0.0029037625063210726 -0.02267882227897644 0.1050025001168251
0.0029425176326185465 -0.023089034482836723 0.10634344071149827
0.002979256911203265 -0.023455185815691948 0.10761752724647522
0.0030130252707749605 -0.0237782821059227 0.10882449150085449
0.003042937722057104 -0.024068936705589294 0.10996148735284805
0.003068262478336692 -0.024345068261027336 0.11102371662855148
0.003088483354076743 -0.024628814309835434 0.11200524121522903
0.0031033395789563656 -0.024947497993707657 0.11289873719215393
0.0031128437258303165 -0.025334876030683517 0.1136951744556427
0.003117278451099992 -0.02582539059221745 0.11438531428575516
0.0031171750742942095 -0.02644502744078636 0.11496219038963316
0.003113273996859789 -0.027202894911170006 0.11542336642742157
0.0031064755748957396 -0.028085894882678982 0.11577235907316208
0.003097780514508486 -0.02905755490064621 0.11601892858743668
0.0030882256105542183 -0.030060971155762672 0.11617832630872728

CELLS 50 150
2 0 1
2 1 2
2 2 3
2 3 4
2 4 5
2 5 6
2 6 7
2 7 8
2 8 9
2 9 10
2 10 11
2 11 12
2 12 13
2 13 14
2 14 15
2 15 16
2 16 17
2 17 18
2 18 19
2 19 20
2 20 21
2 21 22
2 22 23
2 23 24
2 24 25
2 25 26
2 26 27
2 27 28
2 28 29
2 29 30
2 30 31
2 31 32
2 32 33
2 33 34
2 34 35
2 35 36
2 36 37
2 37 38
2 38 39
2 39 40
2 40 41
2 41 42
2 42 43
2 43 44
2 44 45
2 45 46
2 46 47
2 47 48
2 48 49
2 49 50

CELL_TYPES 50
4
4
4
4
4
4
4
4
4
4
4
4
4
4
4
4
4
4
4
4
4
4
4
4
4
4
4
4
4
4
4
4
4
4
4
4
4
4
4
4
4
4
4
4
4
4
4
4
4
4

POINT_DATA 51

SCALARS zone float
LOOKUP_TABLE default
1.0
1.0
1.0
1.0
1.0
1.0
1.0
1.0
1.0
1.0
1.0
1.0
1.0
1.0
1.0
1.0
1.0
1.0
1.0
1.0
1.0
1.0
1.0
1.0
1.0
1.0
1.0
1.0
1.0
1.0
1.0
1.0
1.0
1.0
1.0
1.0
1.0
1.0
1.0
1.0
1.0
1.0
1.0
1.0
1.0
1.0
1.0
1.0
1.0
1.0
1.0

VECTORS normals float
-0.00022568028362002224 -0.0005519866244867444 0.0019934233278036118
-0.00041008330299519 -0.0009146936936303973 0.00399823347106576
-0.0004114889306947589 -0.0006496913265436888 0.003990579396486282
-0.0004941182560287416 -0.0005061057745479047 0.00395039189606905
-0.00050858169561252 -0.00046938302693888545 0.0038815708830952644
-0.00037636776687577367 -0.0006983212660998106 0.003741566091775894
-0.00013244299043435603 -0.0009863023879006505 0.003585740691050887
0.00010425192886032163 -0.0009990086546167731 0.0035036751069128513
0.00024776963982731104 -0.0009716963395476341 0.0034323323052376513
0.00029544899007305503 -0.0010231537744402885 0.0033398834057152267
0.00027896405663341284 -0.0009612089488655329 0.003277820302173495
0.00022802104649599642 -0.0008738531032577156 0.003222566330805421
0.00016584688273724169 -0.0008677399600856007 0.0031455433927476406
0.00010907424439210443 -0.0008999824058264494 0.003058243077248335
6.713013135595247e-5 -0.0009012413793243468 0.0029792445711791515
4.280570647097193e-5 -0.0008501068223267794 0.0029142850544303656
3.3935823012143373e-5 -0.0007680234266445041 0.0028576182667165995
3.555617877282202e-5 -0.0006970812100917101 0.0027979661244899035
4.251242717145942e-5 -0.0006675028125755489 0.0027272305451333523
5.1016584620811045e-5 -0.000678466516546905 0.0026456317864358425
5.867081563337706e-5 -0.0007059260387904942 0.0025596132036298513
6.413481605704874e-5 -0.0007239627302624285 0.002476119203492999
6.685699190711603e-5 -0.0007206969894468784 0.002398333279415965
6.685387052129954e-5 -0.0006973575800657272 0.002325925976037979
6.452756497310475e-5 -0.0006603875663131475 0.0022571710869669914
6.0515933000715456e-5 -0.0006166842649690807 0.0021902204025536776
5.557234908337704e-5 -0.0005725177470594645 0.0021233935840427876
5.047163722338155e-5 -0.0005332697182893753 0.0020552491769194603
4.5931661588838324e-5 -0.000503207091242075 0.0019846432842314243
4.24893842136953e-5 -0.0004847161762882024 0.0019109370186924934
4.035446181660518e-5 -0.0004772229003719986 0.0018342838156968355
3.940596798202023e-5 -0.0004773754335474223 0.0017555819358676672
3.931512765120715e-5 -0.0004803402407560498 0.001676126499660313
3.966056101489812e-5 -0.00048096501268446445 0.0015972980763763191
4.001240085926838e-5 -0.0004745970945805311 0.0015203433576971292
3.999012187705375e-5 -0.00045761774526908994 0.0014462319668382406
3.9298683986999094e-5 -0.00042815608321689064 0.0013754651881754398
3.774720971705392e-5 -0.0003881820884998888 0.0013075150782242417
3.52538627339527e-5 -0.00034462386975064874 0.0012405255110934377
3.184030356351286e-5 -0.00030687489197589457 0.0011719792382791638
2.7618556487141177e-5 -0.0002833933103829622 0.0010996101191267371
2.2772850570618175e-5 -0.00027993920957669616 0.0010218746028840542
1.7538583051646128e-5 -0.0003012150409631431 0.000937512784730643
1.2180190424260218e-5 -0.0003530308895278722 0.000844967784360051
6.969491550989915e-6 -0.0004389458626974374 0.0007432859274558723
2.165645810237038e-6 -0.0005550755886361003 0.0006335080252029002
-2.002310793614015e-6 -0.0006887520430609584 0.0005190285155549645
-5.3496896725846455e-6 -0.0008204341866075993 0.000405083381338045
-7.746687515464146e-6 -0.0009273301693610848 0.0002977796539198607
-9.125015822064597e-6 -0.000987537670880556 0.00020298610616009685
-4.777483354700962e-6 -0.0005017083021812141 7.970042497618124e-5

CELL_DATA 50

VECTORS liftinglineloading               float
0.039855241775512695 -0.055006593465805054 -0.02002076245844364
-0.018098074942827225 -0.001308761304244399 -0.00047635016380809253
0.053334161639213555 -0.06357035785913467 -0.023137718439102173
0.09134773164987564 -0.10290505737066269 -0.037454377859830856
-0.07728497684001923 -0.16447657346725464 -0.0598645806312561
-0.6268163323402405 -0.29433247447013855 -0.10712825506925583
-1.3375436067581177 -0.5152558088302612 -0.1875377744436264
-2.257605791091919 -0.7294384241104126 -0.26549386978149414
-3.3423879146575928 -0.9535812735557556 -0.3470751941204071
-4.378103733062744 -1.1508711576461792 -0.418882817029953
-5.210666656494141 -1.279734492301941 -0.4657852351665496
-6.179961204528809 -1.4433985948562622 -0.5253541469573975
-7.118329048156738 -1.5684843063354492 -0.5708816051483154
-7.169081687927245 -1.5384750366210938 -0.5599591135978699
-7.467032432556152 -1.5200307369232178 -0.5532459020614624
-7.949259281158447 -1.5325119495391846 -0.5577887296676636
-8.190292358398438 -1.509534478187561 -0.5494256019592285
-8.609064102172852 -1.5030080080032349 -0.5470501780509949
-8.884702682495117 -1.491578221321106 -0.5428900718688965
-8.988832473754883 -1.4945521354675293 -0.5439724922180176
-9.331143379211426 -1.4860255718231201 -0.5408690571784973
-9.57799243927002 -1.4372445344924927 -0.5231142044067383
-9.552218437194824 -1.3810467720031738 -0.5026599168777466
-9.663741111755371 -1.3513398170471191 -0.49184748530387884
-9.785575866699219 -1.3162950277328491 -0.4790922105312347
-9.97559928894043 -1.2899101972579956 -0.4694888889789581
-10.224267959594727 -1.2606680393218994 -0.4588456451892852
-10.450718879699707 -1.2220027446746826 -0.4447726011276245
-10.722498893737793 -1.1821614503860474 -0.4302715957164764
-10.977282524108887 -1.1409143209457397 -0.4152588248252869
-11.09867000579834 -1.0914373397827148 -0.3972507119178772
-11.655879974365234 -1.0672625303268433 -0.38845181465148926
-11.710888862609863 -1.0091718435287476 -0.36730849742889404
-11.749122619628906 -0.9674593806266785 -0.35212641954421997
-11.765599250793457 -0.9323135018348694 -0.3393343687057495
-11.721904754638672 -0.8990368843078613 -0.32722264528274536
-11.628016471862793 -0.8797855973243713 -0.32021576166152954
-11.484128952026367 -0.8648642897605896 -0.31478485465049744
-11.29578685760498 -0.8432672023773194 -0.30692416429519653
-10.928929328918457 -0.8216356039047241 -0.299050897359848
-10.636751174926758 -0.7973957061767578 -0.29022830724716187
-10.007696151733398 -0.766859769821167 -0.27911412715911865
-8.935547828674316 -0.8649505972862244 -0.31481626629829407
-7.630787849426269 -0.9230309128761293 -0.33595576882362366
-6.559165000915528 -1.0803707838058472 -0.3932228088378906
-5.45920991897583 -1.134860873222351 -0.41305559873580927
-4.539054870605469 -1.163158655166626 -0.4233551025390625
-3.618578433990479 -1.2025566101074219 -0.437694787979126
-2.745973825454712 -1.223878264427185 -0.44545525312423706
-1.475851058959961 -1.2767612934112549 -0.46470311284065247