# vtk DataFile Version 4.0
 
ASCII
DATASET UNSTRUCTURED_GRID
POINTS 51 float
0.0029255072586238384 0.007142488844692708 -0.0025466219522058964
0.0024741466622799635 0.01112933550029993 -0.0014426487032324076
0.0021053405944257975 0.015138954855501652 -0.0007172345067374408
0.0016511689173057675 0.01911049336194992 -0.00014326605014503002
0.001117104198783636 0.023039739578962326 0.0002949770714621991
0.0006340054678730667 0.026873635128140453 0.0007955000037327409
0.0003643686359282583 0.030522871762514114 0.0016916196327656507
0.0003691194870043546 0.03404511883854866 0.00276810466311872
0.000572872522752732 0.03753022104501724 0.0036896369419991966
0.0008646587957628071 0.0409097820520401 0.004711497575044632
0.0011637704446911812 0.04420998692512512 0.005735944490879774
0.001422586850821972 0.04746542125940323 0.006633915472775698
0.0016198125667870045 0.050655119121074677 0.007483650930225849
0.0017542806454002857 0.053756508976221085 0.00836939550936222
0.001837961026467383 0.05677160620689393 0.00928361527621746
0.0018885409226641061 0.05971499904990196 0.010171878151595592
0.001923572504892945 0.06260018050670624 0.010983829386532307
0.0019564125686883926 0.06543023139238358 0.011707925237715244
0.0019946848042309284 0.06819611042737961 0.01237799134105444
0.002041437430307269 0.07088469713926315 0.013042930513620377
0.00209671794436872 0.07348737120628357 0.013734924606978893
0.002158778952434659 0.07600392401218414 0.01445478294044733
0.002224987605586648 0.0784396082162857 0.015182849951088428
0.002292493125423789 0.08080058544874191 0.015896176919341087
0.0023586952593177557 0.08309146016836166 0.016577566042542458
0.0024215481244027615 0.08531492948532104 0.01721695065498352
0.0024797271471470594 0.08747190237045288 0.01781093329191208
0.0025326928589493036 0.08956171572208405 0.01836198754608631
0.0025806704070419073 0.09158240258693695 0.01887747272849083
0.002624556189402938 0.09353100508451462 0.019368400797247887
0.0026656491681933403 0.09540427476167679 0.019846905022859573
0.0027052650693804026 0.09719957411289215 0.02032284624874592
0.002744461176916957 0.09891544282436371 0.02080165594816208
0.002783895470201969 0.10055182874202728 0.021283527836203575
0.0028237823862582445 0.10211003571748732 0.02176358737051487
0.0028639202937483788 0.10359251499176025 0.022232722491025925
0.0029037625063210726 0.1050025001168251 0.02267882227897644
0.0029425176326185465 0.10634344071149827 0.023089034482836723
0.002979256911203265 0.10761752724647522 0.023455185815691948
0.0030130252707749605 0.10882449150085449 0.0237782821059227
0.003042937722057104 0.10996148735284805 0.024068936705589294
0.003068262478336692 0.11102371662855148 0.024345068261027336
0.003088483354076743 0.11200524121522903 0.024628814309835434
0.0031033395789563656 0.11289873719215393 0.024947497993707657
0.0031128437258303165 0.1136951744556427 0.025334876030683517
0.003117278451099992 0.11438531428575516 0.02582539059221745
0.0031171750742942095 0.11496219038963316 0.02644502744078636
0.003113273996859789 0.11542336642742157 0.027202894911170006
0.0031064755748957396 0.11577235907316208 0.028085894882678982
0.003097780514508486 0.11601892858743668 0.02905755490064621
0.0030882256105542183 0.11617832630872728 0.030060971155762672

CELLS 50 150
2 0 1
2 1 2
2 2 3
2 3 4
2 4 5
2 5 6
2 6 7
2 7 8
2 8 9
2 9 10
2 10 11
2 11 12
2 12 13
2 13 14
2 14 15
2 15 16
2 16 17
2 17 18
2 18 19
2 19 20
2 20 21
2 21 22
2 22 23
2 23 24
2 24 25
2 25 26
2 26 27
2 27 28
2 28 29
2 29 30
2 30 31
2 31 32
2 32 33
2 33 34
2 34 35
2 35 36
2 36 37
2 37 38
2 38 39
2 39 40
2 40 41
2 41 42
2 42 43
2 43 44
2 44 45
2 45 46
2 46 47
2 47 48
2 48 49
2 49 50

CELL_TYPES 50
4
4
4
4
4
4
4
4
4
4
4
4
4
4
4
4
4
4
4
4
4
4
4
4
4
4
4
4
4
4
4
4
4
4
4
4
4
4
4
4
4
4
4
4
4
4
4
4
4
4

POINT_DATA 51

SCALARS zone float
LOOKUP_TABLE default
1.0
1.0
1.0
1.0
1.0
1.0
1.0
1.0
1.0
1.0
1.0
1.0
1.0
1.0
1.0
1.0
1.0
1.0
1.0
1.0
1.0
1.0
1.0
1.0
1.0
1.0
1.0
1.0
1.0
1.0
1.0
1.0
1.0
1.0
1.0
1.0
1.0
1.0
1.0
1.0
1.0
1.0
1.0
1.0
1.0
1.0
1.0
1.0
1.0
1.0
1.0

VECTORS normals float
-0.00022568028362002224 0.0019934233278036118 0.0005519866244867444
-0.00041008330299519 0.00399823347106576 0.0009146936936303973
-0.0004114889306947589 0.003990579396486282 0.0006496913265436888
-0.0004941182560287416 0.00395039189606905 0.0005061057745479047
-0.00050858169561252 0.0038815708830952644 0.00046938302693888545
-0.00037636776687577367 0.003741566091775894 0.0006983212660998106
-0.00013244299043435603 0.003585740691050887 0.0009863023879006505
0.00010425192886032163 0.0035036751069128513 0.0009990086546167731
0.00024776963982731104 0.0034323323052376513 0.0009716963395476341
0.00029544899007305503 0.0033398834057152267 0.0010231537744402885
0.00027896405663341284 0.003277820302173495 0.0009612089488655329
0.00022802104649599642 0.003222566330805421 0.0008738531032577156
0.00016584688273724169 0.0031455433927476406 0.0008677399600856007
0.00010907424439210443 0.003058243077248335 0.0008999824058264494
6.713013135595247e-5 0.0029792445711791515 0.0009012413793243468
4.280570647097193e-5 0.0029142850544303656 0.0008501068223267794
3.3935823012143373e-5 0.0028576182667165995 0.0007680234266445041
3.555617877282202e-5 0.0027979661244899035 0.0006970812100917101
4.251242717145942e-5 0.0027272305451333523 0.0006675028125755489
5.1016584620811045e-5 0.0026456317864358425 0.000678466516546905
5.867081563337706e-5 0.0025596132036298513 0.0007059260387904942
6.413481605704874e-5 0.002476119203492999 0.0007239627302624285
6.685699190711603e-5 0.002398333279415965 0.0007206969894468784
6.685387052129954e-5 0.002325925976037979 0.0006973575800657272
6.452756497310475e-5 0.0022571710869669914 0.0006603875663131475
6.0515933000715456e-5 0.0021902204025536776 0.0006166842649690807
5.557234908337704e-5 0.0021233935840427876 0.0005725177470594645
5.047163722338155e-5 0.0020552491769194603 0.0005332697182893753
4.5931661588838324e-5 0.0019846432842314243 0.000503207091242075
4.24893842136953e-5 0.0019109370186924934 0.0004847161762882024
4.035446181660518e-5 0.0018342838156968355 0.0004772229003719986
3.940596798202023e-5 0.0017555819358676672 0.0004773754335474223
3.931512765120715e-5 0.001676126499660313 0.0004803402407560498
3.966056101489812e-5 0.0015972980763763191 0.00048096501268446445
4.001240085926838e-5 0.0015203433576971292 0.0004745970945805311
3.999012187705375e-5 0.0014462319668382406 0.00045761774526908994
3.9298683986999094e-5 0.0013754651881754398 0.00042815608321689064
3.774720971705392e-5 0.0013075150782242417 0.0003881820884998888
3.52538627339527e-5 0.0012405255110934377 0.00034462386975064874
3.184030356351286e-5 0.0011719792382791638 0.00030687489197589457
2.7618556487141177e-5 0.0010996101191267371 0.0002833933103829622
2.2772850570618175e-5 0.0010218746028840542 0.00027993920957669616
1.7538583051646128e-5 0.000937512784730643 0.0003012150409631431
1.2180190424260218e-5 0.000844967784360051 0.0003530308895278722
6.969491550989915e-6 0.0007432859274558723 0.0004389458626974374
2.165645810237038e-6 0.0006335080252029002 0.0005550755886361003
-2.002310793614015e-6 0.0005190285155549645 0.0006887520430609584
-5.3496896725846455e-6 0.000405083381338045 0.0008204341866075993
-7.746687515464146e-6 0.0002977796539198607 0.0009273301693610848
-9.125015822064597e-6 0.00020298610616009685 0.000987537670880556
-4.777483354700962e-6 7.970042497618124e-5 0.0005017083021812141

CELL_DATA 50

VECTORS liftinglineloading               float
0.06260793656110764 -0.026432927697896957 0.07262387126684189
0.04177694022655487 -0.023791512474417686 0.06536664813756943
-0.004654219839721918 -0.016928615048527718 0.04651098698377609
0.13267061114311218 -0.03208627924323082 0.0881563276052475
0.048436518758535385 -0.04570671170949936 0.1255781501531601
-0.42810222506523127 -0.08951617032289505 0.24594365060329437
-1.1268764734268188 -0.17198653519153595 0.4725291430950165
-2.104517698287964 -0.2582334280014038 0.7094904780387878
-3.1760857105255127 -0.34075355529785156 0.936212658882141
-4.227173805236816 -0.41456955671310425 1.139020562171936
-5.056826591491699 -0.4618172645568847 1.2688324451446533
-6.017176151275635 -0.5205755233764648 1.430269479751587
-6.9368462562561035 -0.565483033657074 1.5536518096923828
-6.986418724060059 -0.5551673769950867 1.5253099203109741
-7.214380264282226 -0.5454242825508118 1.4985408782958984
-7.663565158843993 -0.5493084788322449 1.509212613105774
-7.866361141204833 -0.5411199927330017 1.4867149591445923
-8.296130180358887 -0.5411683320999146 1.4868477582931519
-8.477307319641113 -0.5358027815818787 1.4721060991287231
-8.62035083770752 -0.5363962054252625 1.4737364053726196
-9.035528182983398 -0.5360836386680603 1.4728777408599854
-9.309956550598145 -0.518995463848114 1.4259283542633057
-9.333049774169922 -0.4997425675392151 1.3730313777923584
-9.497437477111816 -0.4899892508983612 1.3462344408035278
-9.67326545715332 -0.4781710207462311 1.3137640953063965
-9.907835006713867 -0.46904313564300537 1.2886854410171509
-10.191704750061035 -0.458620935678482 1.260050654411316
-10.447882652282715 -0.4446186721324921 1.2215797901153564
-10.733884811401367 -0.4300957322120666 1.181678295135498
-11.060099601745605 -0.41476556658744806 1.139559030532837
-11.1924467086792 -0.3965297043323517 1.0894564390182495
-11.750953674316406 -0.38745877146720886 1.0645341873168945
-11.803091049194336 -0.36606746912002563 1.0057621002197266
-11.836111068725586 -0.3510778844356537 0.9645785689353943
-11.843214988708496 -0.3385639488697052 0.9301968216896058
-11.796685218811035 -0.3266471326351166 0.897455632686615
-11.701948165893555 -0.31981566548347473 0.8786863088607788
-11.559793472290039 -0.3144907057285309 0.8640561103820802
-11.376283645629883 -0.306662917137146 0.8425494432449341
-11.014022827148438 -0.2988452911376953 0.8210707306861877
-10.574518203735352 -0.2912844717502594 0.8002974987030029
-9.950762748718262 -0.279833048582077 0.7688350081443787
-9.00113582611084 -0.31533321738243103 0.8663708567619323
-7.696725368499755 -0.3367729187011719 0.9252759814262389
-6.62455654144287 -0.3947623074054718 1.084600567817688
-5.412368297576904 -0.41263160109519964 1.1336960792541504
-4.602048873901367 -0.42576056718826294 1.1697676181793213
-3.6766281127929688 -0.44046357274055475 1.2101637125015259
-2.7956926822662354 -0.44861364364624023 1.232555866241455
-1.5060005187988281 -0.4682072699069977 1.286388874053955