# vtk DataFile Version 4.0
 
ASCII
DATASET UNSTRUCTURED_GRID
POINTS 51 float
0.0029255072586238384 -0.007458887528628111 -0.0013658050447702408
0.0024741466622799635 -0.010359611362218857 -0.004315297119319439
0.0021053405944257975 -0.013469337485730648 -0.006948334164917469
0.0016511689173057675 -0.016621805727481842 -0.009431174956262112
0.001117104198783636 -0.019805511459708214 -0.011775326915085316
0.0006340054678730667 -0.022875500842928886 -0.014125741086900234
0.0003643686359282583 -0.025587772950530052 -0.0167264211922884
0.0003691194870043546 -0.028099883347749714 -0.019419807940721512
0.000572872522752732 -0.030657306313514713 -0.021960429847240448
0.0008646587957628071 -0.03307316079735756 -0.0245351679623127
0.0011637704446911812 -0.035419002175331116 -0.027072466909885406
0.001422586850821972 -0.03778930380940437 -0.029477851465344426
0.0016198125667870045 -0.04012679681181908 -0.03180859237909317
0.0017542806454002857 -0.04236980527639389 -0.034126363694667816
0.001837961026467383 -0.04452384635806084 -0.036425650119781494
0.0018885409226641061 -0.046628765761852264 -0.03866660222411156
0.001923572504892945 -0.04872142896056175 -0.04081236198544502
0.0019564125686883926 -0.05081028491258621 -0.04285447672009468
0.0019946848042309284 -0.05287056788802147 -0.04481770843267441
0.002041437430307269 -0.0548664815723896 -0.04673785716295242
0.00209671794436872 -0.05677447095513344 -0.0486384816467762
0.002158778952434659 -0.05859393626451493 -0.050520170480012894
0.002224987605586648 -0.060339272022247314 -0.05236854031682014
0.002292493125423789 -0.06202727556228637 -0.05416678637266159
0.0023586952593177557 -0.06367053836584091 -0.05590232461690903
0.0024215481244027615 -0.06527642160654068 -0.0575677827000618
0.0024797271471470594 -0.06684742122888565 -0.05916067212820054
0.0025326928589493036 -0.06838172674179077 -0.06068280711770058
0.0025806704070419073 -0.06987395137548447 -0.06213957071304321
0.002624556189402938 -0.07131602615118027 -0.06353902816772461
0.0026656491681933403 -0.07269907742738724 -0.0648900642991066
0.0027052650693804026 -0.07401587814092636 -0.066199891269207
0.002744461176916957 -0.07526245713233948 -0.06747248023748398
0.002783895470201969 -0.07643867284059525 -0.06870798766613007
0.0028237823862582445 -0.07754809409379959 -0.06990283727645874
0.0028639202937483788 -0.07859738916158676 -0.07105036079883575
0.0029037625063210726 -0.0795954242348671 -0.07214168459177017
0.0029425176326185465 -0.08055160939693451 -0.07316741347312927
0.002979256911203265 -0.08147192001342773 -0.07412154972553253
0.0030130252707749605 -0.08235563337802887 -0.07500484585762024
0.003042937722057104 -0.08319497853517532 -0.07582505792379379
0.003068262478336692 -0.08397682011127472 -0.07659530639648438
0.003088483354076743 -0.08468497544527054 -0.0773317962884903
0.0031033395789563656 -0.08529942482709885 -0.07805453985929489
0.0031128437258303165 -0.08579546958208084 -0.07878823578357697
0.003117278451099992 -0.08614788949489594 -0.07955809682607651
0.0031171750742942095 -0.08633766323328018 -0.08038315922021866
0.003113273996859789 -0.08635812252759933 -0.08127008378505707
0.0031064755748957396 -0.08621885627508163 -0.0822092741727829
0.003097780514508486 -0.08594655990600586 -0.08317404240369797
0.0030882256105542183 -0.08558289706707001 -0.08412273228168488

CELLS 50 150
2 0 1
2 1 2
2 2 3
2 3 4
2 4 5
2 5 6
2 6 7
2 7 8
2 8 9
2 9 10
2 10 11
2 11 12
2 12 13
2 13 14
2 14 15
2 15 16
2 16 17
2 17 18
2 18 19
2 19 20
2 20 21
2 21 22
2 22 23
2 23 24
2 24 25
2 25 26
2 26 27
2 27 28
2 28 29
2 29 30
2 30 31
2 31 32
2 32 33
2 33 34
2 34 35
2 35 36
2 36 37
2 37 38
2 38 39
2 39 40
2 40 41
2 41 42
2 42 43
2 43 44
2 44 45
2 45 46
2 46 47
2 47 48
2 48 49
2 49 50

CELL_TYPES 50
4
4
4
4
4
4
4
4
4
4
4
4
4
4
4
4
4
4
4
4
4
4
4
4
4
4
4
4
4
4
4
4
4
4
4
4
4
4
4
4
4
4
4
4
4
4
4
4
4
4

POINT_DATA 51

SCALARS zone float
LOOKUP_TABLE default
1.0
1.0
1.0
1.0
1.0
1.0
1.0
1.0
1.0
1.0
1.0
1.0
1.0
1.0
1.0
1.0
1.0
1.0
1.0
1.0
1.0
1.0
1.0
1.0
1.0
1.0
1.0
1.0
1.0
1.0
1.0
1.0
1.0
1.0
1.0
1.0
1.0
1.0
1.0
1.0
1.0
1.0
1.0
1.0
1.0
1.0
1.0
1.0
1.0
1.0
1.0

VECTORS normals float
-0.00022568028362002224 -0.001450361916795373 -0.001474746037274599
-0.00041008330299519 -0.003005224745720625 -0.002791264560073614
-0.0004114889306947589 -0.0031310974154621363 -0.0025579389184713364
-0.0004941182560287416 -0.003168086986988783 -0.0024134963750839233
-0.00050858169561252 -0.003126847557723522 -0.0023472830653190613
-0.00037636776687577367 -0.0028911305125802755 -0.002475546905770898
-0.00013244299043435603 -0.002612191252410412 -0.002647033194079995
0.00010425192886032163 -0.002534767147153616 -0.0026170043274760246
0.00024776963982731104 -0.0024866387248039246 -0.0025576800107955933
0.00029544899007305503 -0.0023808469995856285 -0.002556018764153123
0.00027896405663341284 -0.0023580712731927633 -0.0024713415186852217
0.00022802104649599642 -0.0023538977839052677 -0.0023680622689425945
0.00016584688273724169 -0.002290250500664115 -0.002324256580322981
0.00010907424439210443 -0.0021985250059515238 -0.0023085291031748056
6.713013135595247e-5 -0.002129480941221118 -0.002270120196044445
4.280570647097193e-5 -0.0020987915340811014 -0.002193356631323695
3.3935823012143373e-5 -0.002090758178383112 -0.0020939370151609182
3.555617877282202e-5 -0.0020745692308992147 -0.0020026732236146927
4.251242717145942e-5 -0.0020280994940549135 -0.0019416897557675836
5.1016584620811045e-5 -0.001951951184310019 -0.0019103852100670338
5.867081563337706e-5 -0.001863726996816695 -0.0018911564256995916
6.413481605704874e-5 -0.0017824007663875818 -0.0018650296842679381
6.685699190711603e-5 -0.0017166690668091178 -0.0018233085284009576
6.685387052129954e-5 -0.001665632240474224 -0.0017668923828750849
6.452756497310475e-5 -0.0016245737206190822 -0.00170049793086946
6.0515933000715456e-5 -0.0015884443419054153 -0.0016291743377223613
5.557234908337704e-5 -0.0015526539646089077 -0.001557511743158102
5.047163722338155e-5 -0.001513263094238937 -0.0014894496416673064
4.5931661588838324e-5 -0.0014671480748802423 -0.0014281118055805564
4.24893842136953e-5 -0.0014125618617981672 -0.001375245046801865
4.035446181660518e-5 -0.0013499249471351504 -0.0013304291060194373
3.940596798202023e-5 -0.0012816907837986946 -0.001291210181079805
3.931512765120715e-5 -0.001211398048326373 -0.0012540500611066818
3.966056101489812e-5 -0.0011428182478994131 -0.0012151768896728754
4.001240085926838e-5 -0.0010793573455885053 -0.0011711848201230168
3.999012187705375e-5 -0.001023664721287787 -0.0011194245889782906
3.9298683986999094e-5 -0.0009771097684279084 -0.0010585265699774027
3.774720971705392e-5 -0.0009382502757944167 -0.000989933148957789
3.52538627339527e-5 -0.0009020146680995821 -0.0009187157847918569
3.184030356351286e-5 -0.0008615264086984097 -0.0008517511305399239
2.7618556487141177e-5 -0.0008105936576612293 -0.000795230851508677
2.2772850570618175e-5 -0.0007449997938238084 -0.0007533718016929924
1.7538583051646128e-5 -0.0006613023579120636 -0.0007296162657439709
1.2180190424260218e-5 -0.0005552481161430478 -0.0007282175938598812
6.969491550989915e-6 -0.000424231548095122 -0.000751781219150871
2.165645810237038e-6 -0.0002710962435230613 -0.0007974635809659959
-2.002310793614015e-6 -0.00010511586879147217 -0.0008559910347685217
-5.3496896725846455e-6 5.940459232078865e-5 -0.0009130585240200162
-7.746687515464146e-6 0.00020578033581841734 -0.0009519813465885819
-9.125015822064597e-6 0.0003179777122568339 -0.0009567257948219775
-4.777483354700962e-6 0.0001818315649870783 -0.00047434234875254333

CELL_DATA 50

VECTORS liftinglineloading               float
0.07142240554094315 0.06445291638374329 -0.054082419723272324
0.07358220964670181 0.08046853542327881 -0.0675211176276207
-0.029864879325032234 0.03276003152132034 -0.027488930150866505
0.1272609382867813 0.06617618352174759 -0.05552840977907181
0.09595785290002823 0.08901523053646088 -0.07469264417886734
-0.3252950608730316 0.1783108413219452 -0.14962056279182434
-0.9698473215103149 0.3521907329559326 -0.29552310705184937
-1.9456183910369873 0.5533573031425476 -0.46432188153266907
-2.9775307178497314 0.7375050187110901 -0.6188401579856873
-3.998652219772339 0.9035658836364747 -0.7581818103790283
-4.780962944030762 1.0081270933151245 -0.8459190726280212
-5.7209296226501465 1.1382886171340942 -0.9551376104354858
-6.593626976013183 1.2354650497436523 -1.0366783142089844
-6.716671943664551 1.223975419998169 -1.027037262916565
-6.906436443328857 1.199311375617981 -1.006341814994812
-7.3621511459350595 1.2108310461044312 -1.016007900238037
-7.553814411163329 1.195430040359497 -1.0030848979949951
-8.006078720092773 1.2022857666015625 -1.0088374614715576
-8.233631134033203 1.1933640241622925 -1.001351237297058
-8.407708168029785 1.194313406944275 -1.002147912979126
-8.945070266723633 1.199940800666809 -1.006869912147522
-9.22059154510498 1.161620855331421 -0.9747156500816345
-9.269810676574707 1.1196725368499756 -0.9395167827606201
-9.45798110961914 1.0986804962158203 -0.9219023585319519
-9.654108047485352 1.0728051662445068 -0.9001904726028441
-9.901987075805664 1.0525202751159668 -0.8831694126129149
-10.192448616027832 1.0291388034820557 -0.8635499477386473
-10.4486665725708 0.9976089596748352 -0.8370932936668397
-10.741316795349121 0.9651112556457518 -0.809824526309967
-11.053827285766602 0.9308936595916749 -0.7811124920845032
-11.075042724609375 0.8922591805458069 -0.7486943602561951
-11.625431060791016 0.8733254671096802 -0.7328070998191833
-11.668522834777832 0.8270801901817322 -0.6940026879310608
-11.693624496459961 0.7936745285987854 -0.6659719944000244
-11.700820922851562 0.7653835415840149 -0.6422330141067505
-11.644883155822754 0.7383983135223389 -0.6195897459983826
-11.537899017333984 0.7227012515068054 -0.6064183712005615
-11.380755424499512 0.7105705738067627 -0.5962395071983337
-11.179022789001465 0.6930747032165527 -0.5815587639808655
-10.805790901184082 0.6752116084098816 -0.5665698051452637
-10.506572723388672 0.6552682518959045 -0.5498353242874146
-9.87600040435791 0.6286579966545105 -0.5275066494941711
-8.927830696105957 0.7076149582862854 -0.5937594771385193
-7.622984409332275 0.7546934485435486 -0.6332629919052124
-6.5539231300353995 0.8826654553413391 -0.7406442761421204
-5.456907272338867 0.9270285964012146 -0.7778693437576294
-4.636618614196777 0.9563031196594238 -0.8024336099624634
-3.70216703414917 0.9890494346618652 -0.8299109935760499
-2.8191211223602295 1.0079293251037598 -0.8457530736923218
-1.5173412561416626 1.0514845848083496 -0.8823003172874451