# vtk DataFile Version 4.0
 
ASCII
DATASET UNSTRUCTURED_GRID
POINTS 51 float
0.0029255072586238384 0.004308459814637899 0.006240000016987324
0.0024741466622799635 0.004273975733667612 0.01037672720849514
0.0021053405944257975 0.0046110451221466064 0.014437473379075527
0.0016511689173057675 0.005084543954581022 0.018422240391373634
0.001117104198783636 0.005678197368979454 0.022331025451421738
0.0006340054678730667 0.006187014747411013 0.026163829490542415
0.0003643686359282583 0.006265921518206596 0.029920652508735657
0.0003691194870043546 0.006137740798294544 0.03360149636864662
0.000572872522752732 0.006149620283395052 0.03720635920763016
0.0008646587957628071 0.006037273444235325 0.040735241025686264
0.0011637704446911812 0.005901889875531197 0.04418814182281494
0.001422586850821972 0.005877085030078888 0.04756506159901619
0.0016198125667870045 0.00588185852393508 0.05086600035429001
0.0017542806454002857 0.005828993394970894 0.054090958088636405
0.001837961026467383 0.005726289004087448 0.05723993852734566
0.0018885409226641061 0.005630099214613438 0.06031293421983719
0.001923572504892945 0.005592553876340389 0.06330995261669159
0.0019564125686883926 0.005625604186207056 0.06623098999261856
0.0019946848042309284 0.0056942300871014595 0.0690760463476181
0.002041437430307269 0.005747805815190077 0.07184511423110962
0.00209671794436872 0.005753013305366039 0.0745382085442543
0.002158778952434659 0.00570901483297348 0.07715532183647156
0.002224987605586648 0.005636158399283886 0.07969645410776138
0.002292493125423789 0.0055582039058208466 0.08216160535812378
0.0023586952593177557 0.0054929545149207115 0.08455078303813934
0.0024215481244027615 0.005450830794870853 0.08686397224664688
0.0024797271471470594 0.005435353610664606 0.08910118043422699
0.0025326928589493036 0.005443960893899202 0.09126240760087967
0.0025806704070419073 0.005469031166285276 0.09334765374660492
0.002624556189402938 0.005499166436493397 0.09535692632198334
0.0026656491681933403 0.00552180502563715 0.09729021042585373
0.0027052650693804026 0.005526737775653601 0.09914752095937729
0.002744461176916957 0.005508342757821083 0.10092884302139282
0.002783895470201969 0.00546641880646348 0.10263418406248094
0.0028237823862582445 0.005406011827290058 0.10426355153322218
0.0028639202937483788 0.005336555186659098 0.10581693798303606
0.0029037625063210726 0.0052705868147313595 0.10729433596134187
0.0029425176326185465 0.005221414379775524 0.10869576036930083
0.002979256911203265 0.005197496619075537 0.1100212037563324
0.0030130252707749605 0.005197795107960701 0.11127065867185593
0.003042937722057104 0.005211320705711842 0.11244414001703264
0.003068262478336692 0.005219521466642618 0.11354164034128189
0.003088483354076743 0.005199480801820755 0.11456315964460372
0.0031033395789563656 0.005122911185026169 0.11550869792699814
0.0031128437258303165 0.004954865202307701 0.11637825518846512
0.003117278451099992 0.004659685771912336 0.11717183142900467
0.0031171750742942095 0.00421046931296587 0.11788942664861679
0.003113273996859789 0.0035977880470454693 0.11853104084730147
0.0031064755748957396 0.0028351987712085247 0.11909667402505875
0.003097780514508486 0.001960465917363763 0.11958632618188858
0.0030882256105542183 0.0010324957547709346 0.11999999731779097

CELLS 50 150
2 0 1
2 1 2
2 2 3
2 3 4
2 4 5
2 5 6
2 6 7
2 7 8
2 8 9
2 9 10
2 10 11
2 11 12
2 12 13
2 13 14
2 14 15
2 15 16
2 16 17
2 17 18
2 18 19
2 19 20
2 20 21
2 21 22
2 22 23
2 23 24
2 24 25
2 25 26
2 26 27
2 27 28
2 28 29
2 29 30
2 30 31
2 31 32
2 32 33
2 33 34
2 34 35
2 35 36
2 36 37
2 37 38
2 38 39
2 39 40
2 40 41
2 41 42
2 42 43
2 43 44
2 44 45
2 45 46
2 46 47
2 47 48
2 48 49
2 49 50

CELL_TYPES 50
4
4
4
4
4
4
4
4
4
4
4
4
4
4
4
4
4
4
4
4
4
4
4
4
4
4
4
4
4
4
4
4
4
4
4
4
4
4
4
4
4
4
4
4
4
4
4
4
4
4

POINT_DATA 51

SCALARS zone float
LOOKUP_TABLE default
1.0
1.0
1.0
1.0
1.0
1.0
1.0
1.0
1.0
1.0
1.0
1.0
1.0
1.0
1.0
1.0
1.0
1.0
1.0
1.0
1.0
1.0
1.0
1.0
1.0
1.0
1.0
1.0
1.0
1.0
1.0
1.0
1.0
1.0
1.0
1.0
1.0
1.0
1.0
1.0
1.0
1.0
1.0
1.0
1.0
1.0
1.0
1.0
1.0
1.0
1.0

VECTORS normals float
-0.00022568028362002224 -1.7242222384084016e-5 0.002068363595753908
-0.00041008330299519 0.0001512926392024383 0.004098737146705389
-0.0004114889306947589 0.0004052843141835183 0.00402275612577796
-0.0004941182560287416 0.0005335760652087629 0.003946775570511818
-0.00050858169561252 0.0005512352799996734 0.0038707947824150324
-0.00037636776687577367 0.00029386201640591025 0.003794813994318247
-0.00013244299043435603 -2.4636945454403758e-5 0.003718833439052105
0.00010425192886032163 -5.8150460972683504e-5 0.0036428526509553194
0.00024776963982731104 -5.023361154599115e-5 0.003566872095689177
0.00029544899007305503 -0.00012386527669150382 0.0034908913075923915
0.00027896405663341284 -8.009421435417607e-5 0.003414910519495607
0.00022802104649599642 -1.0015743100666441e-5 0.003338929964229465
0.00016584688273724169 -2.4045917598414235e-5 0.003262949176132679
0.00010907424439210443 -7.778471626807004e-5 0.0031869683880358934
6.713013135595247e-5 -9.944705379894003e-5 0.0031109878327697515
4.280570647097193e-5 -6.68676511850208e-5 0.003035007044672966
3.3935823012143373e-5 -2.247636075480841e-6 0.0029590262565761805
3.555617877282202e-5 5.0838167226174846e-5 0.0028830457013100386
4.251242717145942e-5 6.110099639045075e-5 0.002807064913213253
5.1016584620811045e-5 2.9391570933512412e-5 0.0027310841251164675
5.867081563337706e-5 -1.9395538402022794e-5 0.0026551035698503256
6.413481605704874e-5 -5.8427471230970696e-5 0.00257912278175354
6.685699190711603e-5 -7.54054999561049e-5 0.002503142226487398
6.685387052129954e-5 -7.160175300668925e-5 0.0024271614383906126
6.452756497310475e-5 -5.368652637116611e-5 0.002351180650293827
6.0515933000715456e-5 -2.880051033571362e-5 0.002275200095027685
5.557234908337704e-5 -3.4349538964306703e-6 0.0021992193069308996
5.047163722338155e-5 1.6838637748151086e-5 0.002123238518834114
4.5931661588838324e-5 2.7602796762948856e-5 0.002047257963567972
4.24893842136953e-5 2.6387031539343297e-5 0.0019712771754711866
4.035446181660518e-5 1.3785658666165546e-5 0.0018952965037897231
3.940596798202023e-5 -6.73123577143997e-6 0.0018193157156929374
3.931512765120715e-5 -3.015958463947754e-5 0.0017433350440114737
3.966056101489812e-5 -5.116535612614826e-5 0.00166735437233001
4.001240085926838e-5 -6.493178807431832e-5 0.0015913737006485462
3.999012187705375e-5 -6.771242624381557e-5 0.0015153929125517607
3.9298683986999094e-5 -5.757043982157484e-5 0.001439412240870297
3.774720971705392e-5 -3.654529064078815e-5 0.0013634315691888332
3.52538627339527e-5 -1.1809476745838765e-5 0.0012874507810920477
3.184030356351286e-5 6.912170647410676e-6 0.001211470109410584
2.7618556487141177e-5 1.0863128409255296e-5 0.0011354894377291203
2.2772850570618175e-5 -5.91989100939827e-6 0.0010595087660476565
1.7538583051646128e-5 -4.830521720577963e-5 0.000983527977950871
1.2180190424260218e-5 -0.00012230791617184877 0.0009075473062694074
6.969491550989915e-6 -0.00023161257558967918 0.0008315665763802826
2.165645810237038e-6 -0.00037219791556708515 0.0007555859046988189
-2.002310793614015e-6 -0.0005309489206410944 0.0006796051748096943
-5.3496896725846455e-6 -0.0006876352708786726 0.0006036245031282306
-7.746687515464146e-6 -0.0008186611230485141 0.0005276437732391059
-9.125015822064597e-6 -0.0009013515082187951 0.0004516630724538117
-4.777483354700962e-6 -0.0004639850230887532 0.00020683636830653995

CELL_DATA 50

VECTORS liftinglineloading               float
0.09397856891155243 -0.09957566857337952 -0.008711742237210274
0.14437367022037506 -0.17450085282325745 -0.015266845934092999
-0.062468089163303375 -0.03168392926454544 -0.002771984552964568
0.09907139092683792 -0.06643539667129517 -0.005812344141304493
0.18259058892726898 -0.0847960114479065 -0.007418689783662558
-0.14897942543029785 -0.18052229285240173 -0.015793655067682266
-0.7773454785346985 -0.3993101119995117 -0.034935109317302704
-1.8468308448791502 -0.697645366191864 -0.06103606149554253
-2.9377148151397705 -0.9536690711975099 -0.08343522995710373
-4.052677154541016 -1.1871496438980103 -0.10386213660240175
-4.939613342285156 -1.3374940156936646 -0.11701557040214539
-5.9446330070495605 -1.515170931816101 -0.13256028294563293
-6.887640953063965 -1.650458335876465 -0.14439639449119568
-6.953482627868652 -1.6240341663360596 -0.14208458364009857
-7.145778179168701 -1.591286540031433 -0.13921953737735748
-7.572141647338868 -1.6013383865356445 -0.1400989592075348
-7.48592758178711 -1.5547188520431519 -0.13602027297019958
-7.8695454597473145 -1.5619512796401978 -0.13665302097797394
-8.176477432250977 -1.5560108423233032 -0.1361333131790161
-8.412155151367188 -1.5604171752929688 -0.13651880621910095
-8.77756118774414 -1.5596959590911865 -0.1364557147026062
-9.030889511108398 -1.5095213651657104 -0.132066011428833
-9.044097900390625 -1.4551188945770264 -0.12730641663074493
-9.192609786987305 -1.4285619258880615 -0.12498297542333604
-9.357588768005371 -1.397781252861023 -0.12229001522064209
-9.565524101257324 -1.373899221420288 -0.12020060420036317
-9.891096115112305 -1.3457847833633423 -0.11774091422557831
-10.095402717590332 -1.304445743560791 -0.11412420868873598
-10.346030235290527 -1.263458251953125 -0.11053827404975891
-10.617252349853516 -1.2214102745056152 -0.10685954988002777
-10.742667198181152 -1.1717817783355713 -0.10251762717962265
-11.301553726196289 -1.1501694917678833 -0.10062679648399353
-11.35425853729248 -1.0933533906936646 -0.09565602988004684
-11.389252662658691 -1.0487430095672607 -0.09175312519073486
-11.401959419250488 -1.010648488998413 -0.08842028677463531
-11.39060115814209 -0.9710694551467897 -0.08495756983757019
-11.302703857421875 -0.9485788941383362 -0.082989901304245
-11.162796020507812 -0.9313037395477296 -0.08147852122783661
-10.976228713989258 -0.9075775742530823 -0.07940274477005005
-10.625707626342773 -0.8831093907356262 -0.07726206630468369
-10.344338417053223 -0.856278657913208 -0.07491467893123627
-9.734423637390137 -0.8192827701568602 -0.07167796045541763
-8.864895820617676 -0.9204023480415344 -0.08052477240562439
-7.568479537963867 -0.9807831645011901 -0.08580741286277771
-6.508571147918701 -1.1456992626190186 -0.1002357006072998
-5.420032501220703 -1.2028559446334839 -0.105236254632473
-4.60701322555542 -1.2409085035324097 -0.10856542736291884
-3.679780483245849 -1.2835712432861328 -0.11229792982339858
-2.7977828979492188 -1.307186245918274 -0.11436397582292557
-1.5089832544326782 -1.364633560180664 -0.11938996613025665