# vtk DataFile Version 4.0
 
ASCII
DATASET UNSTRUCTURED_GRID
POINTS 51 float
0.0029255072586238384 -0.005397044122219086 0.0053265695460140705
0.0024741466622799635 -0.009476913139224052 0.006010944023728371
0.0021053405944257975 -0.013417436741292477 0.007048034109175205
0.0016511689173057675 -0.017259443178772926 0.00820628646761179
0.001117104198783636 -0.02100575715303421 0.009469674900174141
0.0006340054678730667 -0.024691978469491005 0.010636321268975735
0.0003643686359282583 -0.028378024697303772 0.011366395279765129
0.0003691194870043546 -0.032025206834077835 0.011879333294928074
0.000572872522752732 -0.035573240369558334 0.012517009861767292
0.0008646587957628071 -0.03906801715493202 0.013019153848290443
0.0011637704446911812 -0.04249197244644165 0.013485416769981383
0.001422586850821972 -0.0458218976855278 0.014047385193407534
0.0016198125667870045 -0.04907185956835747 0.014625288546085356
0.0017542806454002857 -0.05225700139999389 0.015133234672248363
0.001837961026467383 -0.055375974625349045 0.015578904189169407
0.0018885409226641061 -0.05841898918151856 0.016017796471714973
0.001923572504892945 -0.06137699633836746 0.016501247882843018
0.0019564125686883926 -0.06424791365861893 0.017041029408574104
0.0019946848042309284 -0.06703782826662064 0.017602650448679924
0.002041437430307269 -0.06975553184747696 0.01813625730574131
0.00209671794436872 -0.07240680605173111 0.01860903576016426
0.002158778952434659 -0.07499179989099503 0.019020164385437965
0.002224987605586648 -0.07750698179006577 0.019389675930142403
0.002292493125423789 -0.07994821667671204 0.01974097639322281
0.0023586952593177557 -0.08231242001056671 0.020091593265533447
0.0024215481244027615 -0.08459778130054474 0.02045178972184658
0.0024797271471470594 -0.08680369704961777 0.020825035870075226
0.0025326928589493036 -0.08893059194087982 0.021208805963397026
0.0025806704070419073 -0.09097980707883835 0.02159559540450573
0.002624556189402938 -0.09295331686735153 0.02197417803108692
0.0026656491681933403 -0.09485330432653427 0.02233218401670456
0.0027052650693804026 -0.09668153524398804 0.022659560665488243
0.002744461176916957 -0.09843899309635162 0.02295076847076416
0.002783895470201969 -0.10012570768594742 0.02320561185479164
0.0028237823862582445 -0.10174080729484557 0.023429058492183685
0.0028639202937483788 -0.10328265279531479 0.023630399256944656
0.0029037625063210726 -0.10474906861782075 0.023821981623768806
0.0029425176326185465 -0.10613773763179779 0.024016909301280975
0.002979256911203265 -0.10744719207286835 0.024223515763878822
0.0030130252707749605 -0.10867762565612793 0.02444077655673027
0.003042937722057104 -0.10983092337846756 0.024657869711518288
0.003068262478336692 -0.1109103262424469 0.024856524541974068
0.003088483354076743 -0.11191980540752411 0.025014173239469528
0.0031033395789563656 -0.11286427825689316 0.025102956220507622
0.0031128437258303165 -0.11374980211257935 0.025088461115956306
0.003117278451099992 -0.11458258330821992 0.024935569614171982
0.0031171750742942095 -0.11536727845668794 0.024617787450551987
0.003113273996859789 -0.1161055341362953 0.024125829339027405
0.0031064755748957396 -0.11679500341415405 0.023473046720027924
0.003097780514508486 -0.11742910742759703 0.02269662916660309
0.0030882256105542183 -0.11799763888120651 0.021854590624570847

CELLS 50 150
2 0 1
2 1 2
2 2 3
2 3 4
2 4 5
2 5 6
2 6 7
2 7 8
2 8 9
2 9 10
2 10 11
2 11 12
2 12 13
2 13 14
2 14 15
2 15 16
2 16 17
2 17 18
2 18 19
2 19 20
2 20 21
2 21 22
2 22 23
2 23 24
2 24 25
2 25 26
2 26 27
2 27 28
2 28 29
2 29 30
2 30 31
2 31 32
2 32 33
2 33 34
2 34 35
2 35 36
2 36 37
2 37 38
2 38 39
2 39 40
2 40 41
2 41 42
2 42 43
2 43 44
2 44 45
2 45 46
2 46 47
2 47 48
2 48 49
2 49 50

CELL_TYPES 50
4
4
4
4
4
4
4
4
4
4
4
4
4
4
4
4
4
4
4
4
4
4
4
4
4
4
4
4
4
4
4
4
4
4
4
4
4
4
4
4
4
4
4
4
4
4
4
4
4
4

POINT_DATA 51

SCALARS zone float
LOOKUP_TABLE default
1.0
1.0
1.0
1.0
1.0
1.0
1.0
1.0
1.0
1.0
1.0
1.0
1.0
1.0
1.0
1.0
1.0
1.0
1.0
1.0
1.0
1.0
1.0
1.0
1.0
1.0
1.0
1.0
1.0
1.0
1.0
1.0
1.0
1.0
1.0
1.0
1.0
1.0
1.0
1.0
1.0
1.0
1.0
1.0
1.0
1.0
1.0
1.0
1.0
1.0
1.0

VECTORS normals float
-0.00022568028362002224 -0.002039934741333127 0.000342187297064811
-0.00041008330299519 -0.0040101963095366955 0.0008607323397882283
-0.0004114889306947589 -0.0038912645541131496 0.0010976714547723532
-0.0004941182560287416 -0.0037941606715321545 0.0012108201626688242
-0.00050858169561252 -0.003716267645359039 0.0012150172842666507
-0.00037636776687577367 -0.003686133772134781 0.0009483601315878332
-0.00013244299043435603 -0.003666614182293415 0.0006215060129761696
0.00010425192886032163 -0.0035976073704659934 0.0005753076984547079
0.00024776963982731104 -0.0035214060917496677 0.0005699103930965066
0.00029544899007305503 -0.003459365805611014 0.00048420342500321567
0.00027896405663341284 -0.003376938635483384 0.0005141156143508852
0.00022802104649599642 -0.003289943328127265 0.0005699354805983603
0.00016584688273724169 -0.0032175532542169094 0.0005429245647974312
0.00010907424439210443 -0.003152058459818363 0.00047680828720331187
6.713013135595247e-5 -0.0030809936579316854 0.00044228113256394863
4.280570647097193e-5 -0.003000509925186634 0.00046117167221382255
3.3935823012143373e-5 -0.00291446247138083 0.000511616060975939
3.555617877282202e-5 -0.002830417826771736 0.000550701457541436
4.251242717145942e-5 -0.0027538093272596598 0.0005476144724525511
5.1016584620811045e-5 -0.0026844891253858805 0.0005031928303651512
5.867081563337706e-5 -0.0026181344874203205 0.00044195301597937947
6.413481605704874e-5 -0.0025500860065221786 0.0003903201431967318
6.685699190711603e-5 -0.0024782076943665743 0.000360406149411574
6.685387052129954e-5 -0.0024027209728956223 0.000350958202034235
6.452756497310475e-5 -0.0023247834760695696 0.00035540733369998634
6.0515933000715456e-5 -0.002245635725557804 0.0003667213604785502
5.557234908337704e-5 -0.0021664046216756105 0.00037850765511393547
5.047163722338155e-5 -0.0020880578085780144 0.00038527933065779507
4.5931661588838324e-5 -0.0020113622304052114 0.00038268606294877827
4.24893842136953e-5 -0.0019367469940334558 0.00036829482996836305
4.035446181660518e-5 -0.001864108839072287 0.0003426909970585257
3.940596798202023e-5 -0.001792845199815929 0.0003092919068876654
3.931512765120715e-5 -0.0017220870358869431 0.0002730255655478686
3.966056101489812e-5 -0.0016509082634001972 0.00023914501070976255
4.001240085926838e-5 -0.0015784724382683635 0.00021239380293991414
3.999012187705375e-5 -0.001504128915257752 0.00019646150758489966
3.9298683986999094e-5 -0.0014275413705036044 0.00019325550238136202
3.774720971705392e-5 -0.0013490639394149184 0.0002007673174375668
3.52538627339527e-5 -0.0012699422659352422 0.00021193342399783432
3.184030356351286e-5 -0.0011918648378923535 0.000217176740989089
2.7618556487141177e-5 -0.0011163523886352777 0.000207873759791255
2.2772850570618175e-5 -0.0010444404324516654 0.00017815180763136595
1.7538583051646128e-5 -0.00097697414457798 0.00012321649410296232
1.2180190424260218e-5 -0.0009149981779046357 3.714415288413875e-5
6.969491550989915e-6 -0.0008591523510403931 -8.369384158868343e-5
2.165645810237038e-6 -0.0008087383466772735 -0.00023533728381153196
-2.002310793614015e-6 -0.0007614787900820374 -0.0004048703995067627
-5.3496896725846455e-6 -0.0007138606742955744 -0.0005723702488467097
-7.746687515464146e-6 -0.0006617867038585246 -0.0007145994459278882
-9.125015822064597e-6 -0.0006013193633407354 -0.0008092274656519293
-4.777483354700962e-6 -0.0002842642134055495 -0.00042101930011995137

CELL_DATA 50

VECTORS liftinglineloading               float
0.054411794990301125 -0.006181423552334309 -0.07065399736166
0.01701931841671467 -0.003518688725307584 -0.04021879658102989
0.021050531417131424 -0.004772515967488289 -0.054550107568502426
0.12676212191581726 -0.008660182356834412 -0.09898633509874344
0.0006323394482024014 -0.013126748614013195 -0.1500394195318222
-0.5276300311088562 -0.025181587785482407 -0.28782686591148376
-1.2623645067214966 -0.04668489471077919 -0.5336107611656189
-2.246770143508911 -0.06800906360149384 -0.7773471474647522
-3.2911612987518315 -0.0882846936583519 -1.0090986490249634
-4.358503818511963 -0.10703876614570618 -1.2234586477279663
-5.2095417976379395 -0.1191261410713196 -1.3616180419921875
-6.1838459968566895 -0.13423839211463928 -1.5343518257141113
-7.108387470245362 -0.145577073097229 -1.6639535427093506
-7.136044502258301 -0.1424851417541504 -1.6286126375198362
-7.396676540374755 -0.14033368229866028 -1.6040213108062744
-7.850476264953613 -0.1412269026041031 -1.6142308712005615
-8.066315650939941 -0.13897421956062317 -1.5884826183319092
-8.480338096618652 -0.13849087059497833 -1.5829579830169678
-8.763184547424316 -0.1374872773885727 -1.5714868307113647
-8.784491539001465 -0.13739687204360962 -1.570453405380249
-9.147088050842285 -0.13686539232730865 -1.5643786191940308
-9.405760765075684 -0.13243424892425537 -1.5137304067611694
-9.406554222106934 -0.12740662693977356 -1.4562643766403198
-9.548792839050293 -0.12482213973999025 -1.426723599433899
-9.702945709228516 -0.1217297837138176 -1.3913778066635132
-9.919600486755371 -0.1193726882338524 -1.364436149597168
-10.188139915466309 -0.11671514809131622 -1.3340603113174438
-10.456001281738281 -0.11313935369253159 -1.2931886911392212
-10.746013641357422 -0.10944618284702301 -1.2509756088256836
-11.057546615600586 -0.10555211454629898 -1.2064661979675293
-11.178730010986328 -0.10092996805906296 -1.153634786605835
-11.748318672180176 -0.09859059005975723 -1.126895546913147
-11.79833698272705 -0.09314694255590439 -1.0646743774414062
-11.831215858459473 -0.08933769166469574 -1.0211344957351685
-11.839717864990234 -0.0861542671918869 -0.9847477674484253
-11.795822143554688 -0.08312053978443146 -0.9500721096992494
-11.704584121704102 -0.08138158917427063 -0.9301958084106445
-11.49061107635498 -0.08028846979141235 -0.9177014231681824
-11.298306465148926 -0.07830739766359329 -0.8950576186180115
-10.926748275756836 -0.07632003724575043 -0.872342050075531
-10.629342079162598 -0.07408866286277771 -0.8468372821807861
-9.995221138000488 -0.07124316692352295 -0.8143131136894226
-9.03483772277832 -0.08032098412513733 -0.9180729985237122
-7.72361135482788 -0.08581742644309998 -0.9808977246284485
-6.645676612854004 -0.1006477102637291 -1.1504085063934326
-5.540365219116211 -0.10584066063165665 -1.2097643613815308
-4.762063503265381 -0.1095857247710228 -1.252570629119873
-3.8098304271697994 -0.11338488757610321 -1.2959952354431152
-2.900639295578003 -0.11553052812814711 -1.320520043373108
-1.5658178329467773 -0.12056098133325578 -1.3780182600021362