# vtk DataFile Version 4.0
 
ASCII
DATASET UNSTRUCTURED_GRID
POINTS 51 float
0.0029255072586238384 -0.0073114666156470776 -0.002010692609474063
0.0024741466622799635 -0.009944086894392967 -0.0052017755806446075
0.0021053405944257975 -0.01281249523162842 -0.008095824159681797
0.0016511689173057675 -0.015736574307084084 -0.0108439726755023
0.001117104198783636 -0.01870385743677616 -0.013456682674586773
0.0006340054678730667 -0.021557314321398735 -0.016065720468759537
0.0003643686359282583 -0.024032600224018097 -0.018892893567681313
0.0003691194870043546 -0.02630040794610977 -0.02179497480392456
0.000572872522752732 -0.028626669198274616 -0.02454882487654686
0.0008646587957628071 -0.03080892749130726 -0.027324318885803223
0.0011637704446911812 -0.032924700528383255 -0.030056418851017952
0.001422586850821972 -0.035076338797807693 -0.03265923261642456
0.0016198125667870045 -0.03720179945230484 -0.0351848304271698
0.0017542806454002857 -0.03923426568508148 -0.03768927603960037
0.001837961026467383 -0.04117971286177635 -0.04016754776239395
0.0018885409226641061 -0.043081313371658325 -0.04258343204855919
0.001923572504892945 -0.044978998601436615 -0.04490341246128082
0.0019564125686883926 -0.04688192158937454 -0.04711981117725372
0.0019946848042309284 -0.04876325652003288 -0.049255140125751495
0.002041437430307269 -0.050584226846694946 -0.051341935992240906
0.00209671794436872 -0.052319303154945374 -0.05340161547064782
0.002158778952434659 -0.053967844694852836 -0.055434722453355796
0.002224987605586648 -0.055545441806316376 -0.05742817372083664
0.002292493125423789 -0.05707029625773429 -0.059366699308156974
0.0023586952593177557 -0.05855604261159897 -0.0612388513982296
0.0024215481244027615 -0.06001066416501999 -0.0630379319190979
0.0024797271471470594 -0.061436858028173454 -0.064761683344841
0.0025326928589493036 -0.06283266097307205 -0.06641174852848053
0.0025806704070419073 -0.06419223546981812 -0.06799302995204926
0.002624556189402938 -0.06550685316324234 -0.06951284408569336
0.0026656491681933403 -0.0667668879032135 -0.0709792748093605
0.0027052650693804026 -0.06796452403068542 -0.07239888608455658
0.002744461176916957 -0.06909544765949249 -0.0737752839922905
0.002783895470201969 -0.07015950232744217 -0.075108602643013
0.0028237823862582445 -0.07116056233644485 -0.07639559358358383
0.0028639202937483788 -0.07210585474967957 -0.07763020694255829
0.0029037625063210726 -0.07300497591495514 -0.0788043662905693
0.0029425176326185465 -0.07386812567710876 -0.07990952581167221
0.002979256911203265 -0.07470177859067917 -0.08094024658203125
0.0030130252707749605 -0.07550514489412308 -0.08189719170331955
0.003042937722057104 -0.07626980543136597 -0.08278743922710419
0.003068262478336692 -0.0769815444946289 -0.08362289518117905
0.003088483354076743 -0.07762281596660614 -0.08441831171512604
0.0031033395789563656 -0.07817193865776062 -0.08519185334444046
0.0031128437258303165 -0.0786021426320076 -0.08596599102020264
0.003117278451099992 -0.07888612896203995 -0.0867636427283287
0.0031171750742942095 -0.07900326699018478 -0.08760210126638412
0.003113273996859789 -0.07894635200500488 -0.08848743140697479
0.0031064755748957396 -0.07872575521469116 -0.08941091597080231
0.003097780514508486 -0.07837041467428207 -0.09034828096628189
0.0030882256105542183 -0.07792545109987259 -0.09126165509223938

CELLS 50 150
2 0 1
2 1 2
2 2 3
2 3 4
2 4 5
2 5 6
2 6 7
2 7 8
2 8 9
2 9 10
2 10 11
2 11 12
2 12 13
2 13 14
2 14 15
2 15 16
2 16 17
2 17 18
2 18 19
2 19 20
2 20 21
2 21 22
2 22 23
2 23 24
2 24 25
2 25 26
2 26 27
2 27 28
2 28 29
2 29 30
2 30 31
2 31 32
2 32 33
2 33 34
2 34 35
2 35 36
2 36 37
2 37 38
2 38 39
2 39 40
2 40 41
2 41 42
2 42 43
2 43 44
2 44 45
2 45 46
2 46 47
2 47 48
2 48 49
2 49 50

CELL_TYPES 50
4
4
4
4
4
4
4
4
4
4
4
4
4
4
4
4
4
4
4
4
4
4
4
4
4
4
4
4
4
4
4
4
4
4
4
4
4
4
4
4
4
4
4
4
4
4
4
4
4
4

POINT_DATA 51

SCALARS zone float
LOOKUP_TABLE default
1.0
1.0
1.0
1.0
1.0
1.0
1.0
1.0
1.0
1.0
1.0
1.0
1.0
1.0
1.0
1.0
1.0
1.0
1.0
1.0
1.0
1.0
1.0
1.0
1.0
1.0
1.0
1.0
1.0
1.0
1.0
1.0
1.0
1.0
1.0
1.0
1.0
1.0
1.0
1.0
1.0
1.0
1.0
1.0
1.0
1.0
1.0
1.0
1.0
1.0
1.0

VECTORS normals float
-0.00022568028362002224 -0.0013163102557882667 -0.0015955416020005944
-0.00041008330299519 -0.00275051430799067 -0.0030425656586885452
-0.0004114889306947589 -0.002896243706345558 -0.0028210983145982027
-0.0004941182560287416 -0.0029456813354045153 -0.0026804294902831316
-0.00050858169561252 -0.0029103695414960384 -0.0026108736637979746
-0.00037636776687577367 -0.0026643709279596806 -0.00271810544654727
-0.00013244299043435603 -0.002371547045186162 -0.002864627866074443
0.00010425192886032163 -0.0022970347199589014 -0.00282796542160213
0.00024776963982731104 -0.002254260005429387 -0.002764672040939331
0.00029544899007305503 -0.0021490154322236776 -0.002753796987235546
0.00027896405663341284 -0.002133706584572792 -0.002667456865310669
0.00022802104649599642 -0.0021385501604527235 -0.0025642067193984985
0.00016584688273724169 -0.002078962977975607 -0.0025150205474346876
0.00010907424439210443 -0.001988957403227687 -0.002491358434781432
6.713013135595247e-5 -0.0019235234940424564 -0.002447078237310052
4.280570647097193e-5 -0.0018996413564309478 -0.0023679318837821484
3.3935823012143373e-5 -0.0019003036431968212 -0.0022681904956698418
3.555617877282202e-5 -0.001892130356281996 -0.0021758629009127617
4.251242717145942e-5 -0.0018511526286602018 -0.0021110614761710167
5.1016584620811045e-5 -0.0017780223861336708 -0.002073239302262664
5.867081563337706e-5 -0.001691809855401516 -0.0020463946275413036
6.413481605704874e-5 -0.0016130701405927537 -0.0020132791250944138
6.685699190711603e-5 -0.0015512247337028384 -0.001965987728908658
6.685387052129954e-5 -0.0015052991220727563 -0.0019053382566198707
6.452756497310475e-5 -0.0014701836043968797 -0.0018356179352849722
6.0515933000715456e-5 -0.0014404079411178827 -0.0017614169046282766
5.557234908337704e-5 -0.0014109995681792498 -0.0016869077226147056
5.047163722338155e-5 -0.0013776905834674835 -0.0016156714409589765
4.5931661588838324e-5 -0.0013370970264077187 -0.0015505477786064148
4.24893842136953e-5 -0.0012873262166976929 -0.001493124640546739
4.035446181660518e-5 -0.0012288335710763931 -0.0014430200681090355
3.940596798202023e-5 -0.0011642772005870938 -0.0013980035437271
3.931512765120715e-5 -0.0010974905453622341 -0.0013548583956435323
3.966056101489812e-5 -0.0010325597831979394 -0.0013101559597998857
4.001240085926838e-5 -0.0009731746395118533 -0.0012608002871274948
3.999012187705375e-5 -0.0009222051012329757 -0.0012043830938637257
3.9298683986999094e-5 -0.0008811348234303296 -0.0011396593181416392
3.774720971705392e-5 -0.0008484015706926585 -0.0010679400293156505
3.52538627339527e-5 -0.0008185108890756964 -0.0009938355069607496
3.184030356351286e-5 -0.0007840130128897727 -0.0009235969046130776
2.7618556487141177e-5 -0.0007382001494988799 -0.0008628526702523232
2.2772850570618175e-5 -0.0006765041616745293 -0.0008154360111802816
1.7538583051646128e-5 -0.000595195684581995 -0.0007844761712476611
1.2180190424260218e-5 -0.0004896668833680451 -0.0007738395943306386
6.969491550989915e-6 -0.00035709518124349415 -0.0007858946919441223
2.165645810237038e-6 -0.00020056110224686563 -0.0008180565782822669
-2.002310793614015e-6 -3.011133594554849e-5 -0.0008618951542302966
-5.3496896725846455e-6 0.00013875683362130076 -0.0009044065955094993
-7.746687515464146e-6 0.00028796790866181254 -0.0009304237901233137
-9.125015822064597e-6 0.00040015185368247336 -0.0009253715397790074
-4.777483354700962e-6 0.0002224813069915399 -0.0004566896823234856

CELL_DATA 50

VECTORS liftinglineloading               float
0.02636057697236538 0.03475154563784599 -0.024333294481039047
-0.01056999247521162 0.007429845631122589 -0.005202434025704861
0.05554117262363434 0.0636681467294693 -0.04458091780543327
0.05699658021330834 0.09718437492847443 -0.06804923713207245
-0.13368907570838928 0.15816985070705414 -0.1107517257332802
-0.6920229196548462 0.27109143137931824 -0.18982025980949402
-1.392743468284607 0.45959264039993286 -0.321810245513916
-2.2901101112365723 0.6416822671890259 -0.4493107497692108
-3.3184058666229244 0.8294271826744078 -0.5807711482048035
-4.311878204345703 0.9968941807746887 -0.698032796382904
-5.109290599822998 1.1060222387313843 -0.7744450569152832
-6.065821170806885 1.2472251653671265 -0.8733164072036743
-6.850771903991699 1.3414982557296753 -0.9393271803855896
-6.9427499771118155 1.3224610090255737 -0.9259971976280212
-7.316039562225341 1.3126716613769531 -0.9191426038742065
-7.843550682067872 1.3279389142990112 -0.9298328757286072
-8.121339797973633 1.3113086223602295 -0.918188214302063
-8.579745292663574 1.308265209197998 -0.9160571694374084
-8.9075288772583 1.3001439571380615 -0.9103705883026123
-9.091909408569336 1.3062552213668823 -0.9146497845649719
-9.489006042480469 1.2990564107894897 -0.9096091389656067
-9.774481773376465 1.257420301437378 -0.880455195903778
-9.777146339416504 1.2081083059310913 -0.8459265828132629
-9.910265922546387 1.1811944246292114 -0.8270812034606935
-10.041542053222656 1.1484582424163818 -0.8041591048240662
-10.24165153503418 1.123587965965271 -0.7867447733879089
-10.583036422729492 1.0956472158432007 -0.7671803832054138
-10.867881774902344 1.0612589120864868 -0.7431015372276306
-11.016488075256348 1.0275790691375732 -0.7195186614990234
-11.36347770690918 0.9889832735061647 -0.6924935579299927
-11.493073463439941 0.9433882236480713 -0.6605675220489502
-12.03881549835205 0.9192966222763063 -0.6436984539031982
-12.08114242553711 0.8656812906265259 -0.6061565279960632
-12.104080200195312 0.8305030465126038 -0.5815244913101196
-12.09896469116211 0.8016093969345093 -0.5612929463386536
-12.051164627075195 0.7740813493728638 -0.5420176386833191
-11.938154220581055 0.7593645453453064 -0.5317127704620361
-11.774230003356934 0.7479475736618042 -0.523718535900116
-11.565587043762207 0.7302381992340088 -0.5113183259963989
-11.167510986328125 0.7128382325172424 -0.49913471937179565
-10.847929000854492 0.692796528339386 -0.4851013422012329
-10.185684204101562 0.6685754060745239 -0.46814152598381037
-9.189964294433594 0.7552782297134399 -0.5288515090942383
-7.854038238525391 0.8084034323692322 -0.5660501718521118
-6.744123458862305 0.9500241875648497 -0.6652141213417053
-5.617856025695801 0.9994623064994813 -0.6998310089111328
-4.77323579788208 1.031259298324585 -0.7220955491065979
-3.8147170543670654 1.0667033195495605 -0.746913731098175
-2.9007372856140137 1.0865365266799927 -0.7608010768890381
-1.5636073350906372 1.1334620714187622 -0.7936586737632751