# vtk DataFile Version 4.0
 
ASCII
DATASET UNSTRUCTURED_GRID
POINTS 51 float
0.0029255072586238384 0.004390101879835129 -0.0061828335747122765
0.0024741466622799635 0.008289148099720478 -0.007565272971987724
0.0021053405944257975 0.011989717371761799 -0.009270871989428997
0.0016511689173057675 0.015572226606309414 -0.011078685522079468
0.001117104198783636 0.0190422423183918 -0.012973420321941377
0.0006340054678730667 0.02246987447142601 -0.014762449078261852
0.0003643686359282583 0.02597314491868019 -0.016121506690979004
0.0003691194870043546 0.02947584725916386 -0.017259977757930756
0.000572872522752732 0.03285924717783928 -0.018504077568650246
0.0008646587957628071 0.03621373698115349 -0.019605454057455063
0.0011637704446911812 0.039504703134298325 -0.020659197121858597
0.001422586850821972 0.04268645495176315 -0.02179086208343506
0.0016198125667870045 0.04578668996691704 -0.022924335673451424
0.0017542806454002857 0.04883524402976036 -0.02397765964269638
0.001837961026467383 0.051829442381858826 -0.024958163499832153
0.0018885409226641061 0.05475001409649849 -0.025918802246451374
0.001923572504892945 0.05757912993431092 -0.026908559724688526
0.0019564125686883926 0.060312699526548386 -0.02793866954743862
0.0019946848042309284 0.06296270340681076 -0.02897622436285019
0.002041437430307269 0.06554646044969559 -0.029973648488521572
0.00209671794436872 0.06807535886764526 -0.030899634584784508
0.002158778952434659 0.07054968923330307 -0.03175339475274086
0.002224987605586648 0.07296249270439148 -0.03255404904484749
0.002292493125423789 0.07530564069747925 -0.03332392871379852
0.0023586952593177557 0.07757304608821869 -0.03407976031303406
0.0024215481244027615 0.07976114004850388 -0.03483133390545845
0.0024797271471470594 0.0818687230348587 -0.035581961274147034
0.0025326928589493036 0.08389666676521301 -0.0363292321562767
0.0025806704070419073 0.08584758639335632 -0.037065986543893814
0.002624556189402938 0.08772537112236023 -0.03778151422739029
0.0026656491681933403 0.08953432738780975 -0.0384640097618103
0.0027052650693804026 0.09127793461084366 -0.03910388424992561
0.002744461176916957 0.09295812249183655 -0.039695847779512405
0.002783895470201969 0.09457496553659439 -0.040239714086055756
0.0028237823862582445 0.0961267277598381 -0.040740225464105606
0.0028639202937483788 0.09761018306016922 -0.041206244379282
0.0029037625063210726 0.0990210473537445 -0.041649557650089264
0.0029425176326185465 0.10035477578639984 -0.042082663625478745
0.002979256911203265 0.10160846263170244 -0.042513515800237656
0.0030130252707749605 0.1027824655175209 -0.0429411381483078
0.003042937722057104 0.10388055443763733 -0.043355200439691544
0.003068262478336692 0.10490906238555908 -0.04373827204108238
0.003088483354076743 0.10587582737207411 -0.044068820774555206
0.0031033395789563656 0.10679052770137785 -0.04432026296854019
0.0031128437258303165 0.10766512155532837 -0.0444597564637661
0.003117278451099992 0.10851179808378221 -0.04445379972457886
0.0031171750742942095 0.10933975875377655 -0.04427710548043251
0.003113273996859789 0.1101522296667099 -0.04392081871628761
0.0031064755748957396 0.11094456911087038 -0.043397676199674606
0.003097780514508486 0.11170387268066406 -0.04274316877126694
0.0030882256105542183 0.11240997910499571 -0.04201264679431915

CELLS 50 150
2 0 1
2 1 2
2 2 3
2 3 4
2 4 5
2 5 6
2 6 7
2 7 8
2 8 9
2 9 10
2 10 11
2 11 12
2 12 13
2 13 14
2 14 15
2 15 16
2 16 17
2 17 18
2 18 19
2 19 20
2 20 21
2 21 22
2 22 23
2 23 24
2 24 25
2 25 26
2 26 27
2 27 28
2 28 29
2 29 30
2 30 31
2 31 32
2 32 33
2 33 34
2 34 35
2 35 36
2 36 37
2 37 38
2 38 39
2 39 40
2 40 41
2 41 42
2 42 43
2 43 44
2 44 45
2 45 46
2 46 47
2 47 48
2 48 49
2 49 50

CELL_TYPES 50
4
4
4
4
4
4
4
4
4
4
4
4
4
4
4
4
4
4
4
4
4
4
4
4
4
4
4
4
4
4
4
4
4
4
4
4
4
4
4
4
4
4
4
4
4
4
4
4
4
4

POINT_DATA 51

SCALARS zone float
LOOKUP_TABLE default
1.0
1.0
1.0
1.0
1.0
1.0
1.0
1.0
1.0
1.0
1.0
1.0
1.0
1.0
1.0
1.0
1.0
1.0
1.0
1.0
1.0
1.0
1.0
1.0
1.0
1.0
1.0
1.0
1.0
1.0
1.0
1.0
1.0
1.0
1.0
1.0
1.0
1.0
1.0
1.0
1.0
1.0
1.0
1.0
1.0
1.0
1.0
1.0
1.0
1.0
1.0

VECTORS normals float
-0.00022568028362002224 0.0019495232263579965 -0.000691219640430063
-0.00041008330299519 0.003799807745963335 -0.0015440192073583603
-0.0004114889306947589 0.0036415390204638247 -0.0017567063914611936
-0.0004941182560287416 0.0035262620076537132 -0.0018512741662561896
-0.00050858169561252 0.0034488236997276545 -0.0018418815452605486
-0.00037636776687577367 0.0034654519986361265 -0.0015740428352728486
-0.00013244299043435603 0.0035029866266995664 -0.001248764805495739
0.00010425192886032163 0.003443050431087613 -0.0011912854388356209
0.00024776963982731104 0.003368944162502885 -0.00117273791693151
0.00029544899007305503 0.003322729142382741 -0.0010775598930194974
0.00027896405663341284 0.0032363601494580503 -0.0010927042458206415
0.00022802104649599642 0.0031409934163093567 -0.001132569508627057
0.00016584688273724169 0.0030743933748453856 -0.0010933985468000174
0.00010907424439210443 0.0030213745776563883 -0.0010169136803597212
6.713013135595247e-5 0.0029573850333690643 -0.0009705708362162114
4.280570647097193e-5 0.0028748437762260437 -0.0009751985198818147
3.3935823012143373e-5 0.0027813438791781664 -0.0010099345818161964
3.555617877282202e-5 0.0026917890645563602 -0.0010338319698348641
4.251242717145942e-5 0.0026168804615736008 -0.001017488888464868
5.1016584620811045e-5 0.0025563272647559643 -0.0009617048781365156
5.867081563337706e-5 0.0025016148574650288 -0.0008898730156943202
6.413481605704874e-5 0.0024435659870505333 -0.000827208103146404
6.685699190711603e-5 0.002377974335104227 -0.0007852670387364924
6.685387052129954e-5 0.0023052748292684555 -0.0007628544699400663
6.452756497310475e-5 0.002227748977020383 -0.0007537023047916591
6.0515933000715456e-5 0.0021478389389812946 -0.0007511005969718099
5.557234908337704e-5 0.002067764988169074 -0.0007489494746550918
5.047163722338155e-5 0.0019894323777407408 -0.0007420135079883039
4.5931661588838324e-5 0.0019143524114042523 -0.0007261415594257414
4.24893842136953e-5 0.001843369682319462 -0.0006990121910348535
4.035446181660518e-5 0.0017762811621651053 -0.0006611838471144438
3.940596798202023e-5 0.0017118998803198335 -0.0006159173208288848
3.931512765120715e-5 0.0016485142987221477 -0.000567914976272732
3.966056101489812e-5 0.0015843001892790198 -0.000522189075127244
4.001240085926838e-5 0.0015176100423559546 -0.00048326593241654336
3.999012187705375e-5 0.0014471625909209251 -0.00045466606388799846
3.9298683986999094e-5 0.0013722953153774142 -0.0004382094775792211
3.774720971705392e-5 0.001293705776333809 -0.0004319797153584659
3.52538627339527e-5 0.0012138470774516463 -0.0004292368539609015
3.184030356351286e-5 0.0011360454373061657 -0.0004208424943499267
2.7618556487141177e-5 0.001063295640051365 -0.00039856825605966156
2.2772850570618175e-5 0.0009976372821256518 -0.00035681045847013593
1.7538583051646128e-5 0.0009407353936694561 -0.0002909943286795169
1.2180190424260218e-5 0.0008946472662501037 -0.0001954676117748022
6.969491550989915e-6 0.0008606331539340317 -6.676789780613035e-5
2.165645810237038e-6 0.0008373176679015161 9.132603736361489e-5
-2.002310793614015e-6 0.0008202152093872427 0.00026649009669199586
-5.3496896725846455e-6 0.0008024065755307674 0.0004397140583023429
-7.746687515464146e-6 0.0007758215651847422 0.0005888250307179987
-9.125015822064597e-6 0.0007327048224397004 0.0006925154593773186
-4.777483354700962e-6 0.0003530548419803381 0.00036526110488921404

CELL_DATA 50

VECTORS liftinglineloading               float
0.011190769262611866 0.005132697988301516 0.019155489280819893
0.010164313018321991 0.008168528787791729 0.030485363677144054
0.04735686630010605 0.021652257069945335 0.08080732077360153
0.013205190189182758 0.033102378249168396 0.1235397607088089
-0.22250202298164368 0.05639601871371269 0.21047280728816986
-0.8063682317733765 0.0928051546216011 0.34635356068611145
-1.530168890953064 0.15159238874912262 0.5657504796981812
-2.415236473083496 0.20744916796684265 0.7742108106613159
-3.45166277885437 0.2666838765144348 0.995277762413025
-4.432764053344727 0.3185960054397583 1.1890164613723755
-5.213852405548096 0.3520926535129547 1.3140276670455933
-6.145131587982178 0.3957405388355255 1.4769237041473389
-7.066644191741944 0.4295406639575958 1.6030675172805786
-7.1229801177978525 0.42139762639999395 1.5726773738861084
-7.433496475219727 0.416579395532608 1.5546954870224
-7.934671401977539 0.4203934967517853 1.56892991065979
-8.19995403289795 0.4144068956375122 1.546587586402893
-8.632774353027344 0.41246569156646734 1.539342999458313
-8.948760986328125 0.40968948602676397 1.5289820432662964
-9.066080093383789 0.41094559431076055 1.5336698293685913
-9.426429748535156 0.40835571289062494 1.5240042209625244
-9.67883014678955 0.3950639069080353 1.4743984937667847
-9.653763771057129 0.37951284646987915 1.4163612127304077
-9.763362884521484 0.371173232793808 1.3852373361587524
-9.879231452941895 0.3612403869628906 1.3481675386428833
-10.067058563232422 0.3538050353527069 1.320418357849121
-10.322257041931152 0.34562811255455017 1.289901614189148
-10.569297790527344 0.3350588083267212 1.25045645236969
-10.857357025146484 0.3240043818950653 1.2092008590698242
-11.176986694335938 0.31224170327186584 1.1653019189834595
-11.3052339553833 0.29823195934295654 1.1130168437957764
-11.86406421661377 0.2909790277481079 1.0859484672546387
-11.91779613494873 0.2743903696537018 1.0240387916564941
-11.964497566223145 0.2629827558994293 0.9814649820327759
-11.98328971862793 0.2535361349582672 0.946209728717804
-11.946593284606934 0.24464675784111023 0.9130340814590454
-11.857824325561523 0.2397003471851349 0.8945738673210144
-11.721692085266113 0.23585066199302673 0.8802066445350647
-11.533824920654297 0.2301133871078491 0.858794867992401
-11.15526294708252 0.22451744973659515 0.8379105329513549
-10.852785110473633 0.21812814474105835 0.8140653371810913
-10.204769134521484 0.2105901837348938 0.785933256149292
-9.218252182006836 0.23802150785923004 0.8883083462715149
-7.891814708709718 0.25497040152549744 0.9515625238418579
-6.795621871948242 0.3001460134983063 1.1201602220535278
-5.673830986022949 0.3161122500896454 1.1797469854354858
-4.772600173950195 0.3251696825027466 1.2135497331619263
-3.819916009902954 0.33650004863739014 1.2558352947235107
-2.9093592166900635 0.3429282009601593 1.2798254489898682
-1.5709588527679443 0.35788583755493164 1.3356480598449707