# vtk DataFile Version 4.0
 
ASCII
DATASET UNSTRUCTURED_GRID
POINTS 51 float
0.0029255072586238384 -0.006893356796354056 0.0031594401225447655
0.0024741466622799635 -0.010961249470710754 0.002407144522294402
0.0021053405944257975 -0.01501883566379547 0.002033952157944441
0.0016511689173057675 -0.01902528665959835 0.0018083101604133842
0.001117104198783636 -0.02297777496278286 0.0017141910502687097
0.0006340054678730667 -0.0268407054245472 0.0015497187850996852
0.0003643686359282583 -0.030554156750440598 0.0009750610333867371
0.0003691194870043546 -0.03415682166814804 0.00020965616567991674
0.000572872522752732 -0.03770897909998894 -0.0004046224639751017
0.0008646587957628071 -0.041164740920066833 -0.0011280464241281152
0.0011637704446911812 -0.044541675597429276 -0.0018609632970765233
0.001422586850821972 -0.04786298796534538 -0.002471787156537175
0.0016198125667870045 -0.051114607602357864 -0.0030402885749936104
0.0017542806454002857 -0.05428139120340347 -0.0036523586604744196
0.001837961026467383 -0.057364694774150855 -0.004300317261368036
0.0018885409226641061 -0.06037430092692376 -0.004928665701299906
0.001923572504892945 -0.06331926584243774 -0.00548606738448143
0.0019564125686883926 -0.06620166450738907 -0.005960751790553331
0.0019946848042309284 -0.06901541352272034 -0.006387207191437483
0.002041437430307269 -0.07175172120332718 -0.006815290078520776
0.00209671794436872 -0.07440480589866638 -0.00727781280875206
0.002158778952434659 -0.07697451859712601 -0.007775599602609873
0.002224987605586648 -0.0794643983244896 -0.008288612589240074
0.002292493125423789 -0.08187855780124664 -0.008793451823294163
0.0023586952593177557 -0.08422010391950607 -0.009272584691643715
0.0024215481244027615 -0.08649083971977234 -0.009715749882161617
0.0024797271471470594 -0.08869136869907379 -0.010119479149580002
0.0025326928589493036 -0.09082125872373581 -0.010486296378076077
0.0025806704070419073 -0.09287918359041214 -0.010823706164956093
0.002624556189402938 -0.094863161444664 -0.011142934672534466
0.0026656491681933403 -0.0967710092663765 -0.011456351727247238
0.0027052650693804026 -0.09860095381736755 -0.011774011887609959
0.002744461176916957 -0.10035201907157898 -0.012101450935006142
0.002783895470201969 -0.10202417522668839 -0.012438868172466755
0.0028237823862582445 -0.1036183014512062 -0.012781293131411076
0.0028639202937483788 -0.10513602197170258 -0.013119436800479889
0.0029037625063210726 -0.1065795198082924 -0.013440951704978943
0.0029425176326185465 -0.10795111209154128 -0.013732731342315674
0.002979256911203265 -0.10925226658582687 -0.013986445963382723
0.0030130252707749605 -0.11048279702663422 -0.01420311816036701
0.003042937722057104 -0.11164079606533052 -0.014393570832908154
0.003068262478336692 -0.11272304505109788 -0.014576073735952376
0.003088483354076743 -0.11372556537389755 -0.014773194678127766
0.0031033395789563656 -0.11464344710111618 -0.015012792311608791
0.0031128437258303165 -0.11547061055898666 -0.01532928179949522
0.003117278451099992 -0.11620087176561356 -0.015757780522108078
0.0031171750742942095 -0.1168295592069626 -0.016324780881404877
0.003113273996859789 -0.11735503375530244 -0.017039569094777107
0.0031064755748957396 -0.1177796572446823 -0.01788879558444023
0.003097780514508486 -0.11810997128486633 -0.018835265189409256
0.0030882256105542183 -0.11835622042417526 -0.01982097141444683

CELLS 50 150
2 0 1
2 1 2
2 2 3
2 3 4
2 4 5
2 5 6
2 6 7
2 7 8
2 8 9
2 9 10
2 10 11
2 11 12
2 12 13
2 13 14
2 14 15
2 15 16
2 16 17
2 17 18
2 18 19
2 19 20
2 20 21
2 21 22
2 22 23
2 23 24
2 24 25
2 25 26
2 26 27
2 27 28
2 28 29
2 29 30
2 30 31
2 31 32
2 32 33
2 33 34
2 34 35
2 35 36
2 36 37
2 37 38
2 38 39
2 39 40
2 40 41
2 41 42
2 42 43
2 43 44
2 44 45
2 45 46
2 46 47
2 47 48
2 48 49
2 49 50

CELL_TYPES 50
4
4
4
4
4
4
4
4
4
4
4
4
4
4
4
4
4
4
4
4
4
4
4
4
4
4
4
4
4
4
4
4
4
4
4
4
4
4
4
4
4
4
4
4
4
4
4
4
4
4

POINT_DATA 51

SCALARS zone float
LOOKUP_TABLE default
1.0
1.0
1.0
1.0
1.0
1.0
1.0
1.0
1.0
1.0
1.0
1.0
1.0
1.0
1.0
1.0
1.0
1.0
1.0
1.0
1.0
1.0
1.0
1.0
1.0
1.0
1.0
1.0
1.0
1.0
1.0
1.0
1.0
1.0
1.0
1.0
1.0
1.0
1.0
1.0
1.0
1.0
1.0
1.0
1.0
1.0
1.0
1.0
1.0
1.0
1.0

VECTORS normals float
-0.00022568028362002224 -0.002033946570008993 -0.0003761478583328426
-0.00041008330299519 -0.0040627396665513515 -0.0005627440405078232
-0.0004114889306947589 -0.004032018594443798 -0.0002994171518366784
-0.0004941182560287416 -0.003979469649493694 -0.0001598805538378656
-0.00050858169561252 -0.00390770984813571 -0.00012929570220876485
-0.00037636776687577367 -0.003788190893828869 -0.0003695649793371558
-0.00013244299043435603 -0.0036580578889697786 -0.000670031295157969
0.00010425192886032163 -0.0035774118732661013 -0.0006898417486809194
0.00024776963982731104 -0.0035039603244513273 -0.0006688512512482703
0.00029544899007305503 -0.0034163477830588813 -0.0007281703874468803
0.00027896405663341284 -0.0033491221256554127 -0.0006718704244121909
0.00022802104649599642 -0.003286464838311076 -0.0005896626971662045
0.00016584688273724169 -0.0032092020846903324 -0.0005902858101762831
0.00010907424439210443 -0.0031250440515577793 -0.0006300142267718911
6.713013135595247e-5 -0.0030464560259133577 -0.000638153578620404
4.280570647097193e-5 -0.00297728693112731 -0.0005928752361796796
3.3935823012143373e-5 -0.0029136817902326584 -0.0005160430446267128
3.555617877282202e-5 -0.0028480736073106527 -0.0004505697870627046
4.251242717145942e-5 -0.00277502927929163 -0.000427268969360739
5.1016584620811045e-5 -0.0026946966536343098 -0.00044530275044962764
5.867081563337706e-5 -0.0026113984640687704 -0.00048015476204454893
6.413481605704874e-5 -0.0025297943502664566 -0.0005053998320363462
6.685699190711603e-5 -0.0024520198348909616 -0.0005089259939268231
6.685387052129954e-5 -0.002377853961661458 -0.0004919861094094813
6.452756497310475e-5 -0.0023061383981257677 -0.0004611491458490491
6.0515933000715456e-5 -0.0022356335539370775 -0.00042344728717580443
5.557234908337704e-5 -0.0021652118302881718 -0.0003852731897495687
5.047163722338155e-5 -0.0020939058158546686 -0.00035211368231102824
4.5931661588838324e-5 -0.0020209485664963722 -0.00032831914722919464
4.24893842136953e-5 -0.0019459110917523505 -0.000316322548314929
4.035446181660518e-5 -0.0018688965355977414 -0.0003155385493300855
3.940596798202023e-5 -0.0017905074637383223 -0.0003225498367100954
3.931512765120715e-5 -0.0017116126837208867 -0.00033242834615521133
3.966056101489812e-5 -0.0016331387450918555 -0.00033992109820246696
4.001240085926838e-5 -0.0015559218591079116 -0.0003402844595257193
3.999012187705375e-5 -0.0014806125545874238 -0.00032982893753796816
3.9298683986999094e-5 -0.0014075473882257938 -0.00030664712539874017
3.774720971705392e-5 -0.0013363718753680587 -0.0002727474784478545
3.52538627339527e-5 -0.0012658408377319574 -0.0002351935545448214
3.184030356351286e-5 -0.0011942654382437468 -0.0002035624202108011
2.7618556487141177e-5 -0.001120125176385045 -0.00018647756951395422
2.2772850570618175e-5 -0.00104238442145288 -0.00018981171888299286
1.7538583051646128e-5 -0.0009601978817954661 -0.00021835920051671567
1.2180190424260218e-5 -0.0008725210791453719 -0.00027804373530671
6.969491550989915e-6 -0.0007787141366861761 -0.00037249390152283013
2.165645810237038e-6 -0.0006794753717258573 -0.0004977494827471673
-2.002310793614015e-6 -0.0005770821589976549 -0.0006408948102034628
-5.3496896725846455e-6 -0.0004750474763568491 -0.0007820068276487291
-7.746687515464146e-6 -0.00037746867747046053 -0.0008978482219390571
-9.125015822064597e-6 -0.00028828324866481125 -0.000966088380664587
-4.777483354700962e-6 -0.00012312390026636422 -0.0004928528214804828

CELL_DATA 50

VECTORS liftinglineloading               float
0.015111375600099564 0.006722381804138423 -0.025088271126151085
0.0021323119290173054 0.005835377611219883 -0.0217779241502285
0.0513354130089283 0.02118871919810772 -0.07907737791538239
0.031221233308315274 0.03214734420180321 -0.1199755147099495
-0.18370972573757172 0.05375783517956734 -0.20062696933746338
-0.7562494874000549 0.08974209427833557 -0.33492207527160645
-1.4667494297027588 0.14876726269721985 -0.5552069544792175
-2.3537535667419434 0.2051399052143097 -0.7655925750732422
-3.3820610046386723 0.2641722857952118 -0.985904335975647
-4.3650054931640625 0.31634730100631714 -1.18062424659729
-5.151310920715332 0.3501780033111572 -1.3068821430206299
-6.094167709350586 0.3942245841026306 -1.4712661504745483
-7.0303330421447745 0.4286128282546997 -1.599604845046997
-7.102818965911865 0.42106145620346064 -1.571422815322876
-7.420615196228027 0.41641712188720703 -1.5540897846221924
-7.931845664978027 0.4205027222633362 -1.5693374872207642
-8.206388473510742 0.41472262144088745 -1.547765851020813
-8.64808177947998 0.41289559006690985 -1.5409473180770874
-8.974387168884277 0.4102219939231873 -1.530969262123108
-9.098746299743652 0.4116141498088836 -1.5361649990081787
-9.469184875488281 0.409028023481369 -1.5265134572982788
-9.692452430725098 0.39535775780677795 -1.4754952192306519
-9.687772750854492 0.3799872398376465 -1.418131709098816
-9.812206268310547 0.37170255184173584 -1.3872127532958984
-9.937091827392578 0.3616853952407837 -1.3498282432556152
-10.131057739257812 0.3541336953639984 -1.321644902229309
-10.392355918884277 0.34581616520881653 -1.290603518486023
-10.64797306060791 0.3351757526397705 -1.250892996788025
-10.96225357055664 0.3239705562591553 -1.2090744972229004
-11.277484893798828 0.3119905889034271 -1.1643646955490112
-11.420166969299316 0.2976539731025696 -1.110859751701355
-11.983206748962402 0.29001379013061523 -1.0823462009429932
-12.045360565185547 0.2729363739490509 -1.0186123847961426
-12.089155197143555 0.2615818679332733 -0.9762368202209474
-12.107267379760742 0.2522212564945221 -0.9413025379180908
-12.069245338439941 0.24346570670604706 -0.9086263775825502
-11.979435920715332 0.2386828660964966 -0.8907765746116637
-11.838485717773438 0.23497480154037473 -0.8769378662109375
-11.652933120727539 0.22928497195243835 -0.8557031154632568
-11.272924423217773 0.2238057553768158 -0.835254430770874
-10.971268653869629 0.21749787032604218 -0.8117130994796754
-10.320398330688477 0.21037140488624576 -0.7851167917251587
-9.238091468811035 0.2380727380514145 -0.8884995579719543
-7.911194324493409 0.255087673664093 -0.9520000815391542
-6.813536167144776 0.30039316415786743 -1.1210825443267822
-5.689938068389893 0.316425621509552 -1.1809165477752686
-4.8453850746154785 0.32672035694122314 -1.219336986541748
-3.883391857147217 0.33816230297088623 -1.2620389461517334
-2.961221933364868 0.34470412135124207 -1.2864532470703125
-1.6014482975006104 0.3597380220890045 -1.3425606489181519