# vtk DataFile Version 4.0
 
ASCII
DATASET UNSTRUCTURED_GRID
POINTS 51 float
0.0029255072586238384 -0.005776683799922466 -0.0049122655764222145
0.0024741466622799635 -0.006814037915319205 -0.008916962891817093
0.0021053405944257975 -0.008190620690584183 -0.012752102687954903
0.0016511689173057675 -0.009679319337010384 -0.016478540375828743
0.001117104198783636 -0.011264411732554436 -0.020100487396121025
0.0006340054678730667 -0.01274789497256279 -0.023671001195907593
0.0003643686359282583 -0.013796450570225714 -0.027279391884803772
0.0003691194870043546 -0.014625309035182 -0.030867988243699074
0.000572872522752732 -0.015569791197776796 -0.034346941858530045
0.0008646587957628071 -0.0163746140897274 -0.03778465837240219
0.0011637704446911812 -0.017137520015239716 -0.04115494340658188
0.001422586850821972 -0.01798757165670395 -0.044423218816518784
0.0016198125667870045 -0.018846528604626656 -0.04761044681072235
0.0017542806454002857 -0.01963014528155327 -0.05073919892311096
0.001837961026467383 -0.020345956087112427 -0.05380745977163314
0.0018885409226641061 -0.021048394963145256 -0.05680064484477043
0.001923572504892945 -0.021787812933325768 -0.059705257415771484
0.0019564125686883926 -0.022575756534934044 -0.06251820921897888
0.0019946848042309284 -0.02337840013206005 -0.06524855643510818
0.002041437430307269 -0.02414683811366558 -0.06790941208600998
0.00209671794436872 -0.02484889328479767 -0.0705093964934349
0.002158778952434659 -0.0254837516695261 -0.07304871827363968
0.002224987605586648 -0.026071071624755856 -0.07552212476730347
0.002292493125423789 -0.026633800938725468 -0.07792345434427261
0.0023586952593177557 -0.02718913927674293 -0.08024810254573822
0.0024215481244027615 -0.027747148647904396 -0.0824933722615242
0.0024797271471470594 -0.028311230242252346 -0.08465835452079773
0.0025326928589493036 -0.028878912329673767 -0.08674371987581253
0.0025806704070419073 -0.029442830011248592 -0.088751420378685
0.002624556189402938 -0.02999197505414486 -0.0906844288110733
0.0026656491681933403 -0.03051421418786049 -0.09254597872495651
0.0027052650693804026 -0.030999684706330303 -0.09433872252702713
0.002744461176916957 -0.03144295886158943 -0.09606411308050156
0.002783895470201969 -0.03184383735060692 -0.09772220253944397
0.0028237823862582445 -0.032207198441028595 -0.09931167960166931
0.0028639202937483788 -0.0325421541929245 -0.10083010792732239
0.0029037625063210726 -0.03286081552505493 -0.10227424651384354
0.0029425176326185465 -0.033176030963659286 -0.10364063829183578
0.002979256911203265 -0.03349597752094269 -0.10492710769176482
0.0030130252707749605 -0.03381964936852455 -0.10613391548395157
0.003042937722057104 -0.03413643315434456 -0.10726390779018402
0.003068262478336692 -0.03442841023206711 -0.1083218902349472
0.003088483354076743 -0.03467344120144844 -0.10931378602981567
0.0031033395789563656 -0.03484420105814934 -0.11024692654609679
0.0031128437258303165 -0.034906938672065735 -0.11113034933805464
0.003117278451099992 -0.03482721373438835 -0.11197327822446823
0.0031171750742942095 -0.03457903116941452 -0.11278268694877623
0.003113273996859789 -0.0341532863676548 -0.11356101930141448
0.0031064755748957396 -0.033563077449798584 -0.11430475115776063
0.003097780514508486 -0.03284488245844841 -0.11500411480665208
0.0030882256105542183 -0.032055601477622986 -0.11564386636018753

CELLS 50 150
2 0 1
2 1 2
2 2 3
2 3 4
2 4 5
2 5 6
2 6 7
2 7 8
2 8 9
2 9 10
2 10 11
2 11 12
2 12 13
2 13 14
2 14 15
2 15 16
2 16 17
2 17 18
2 18 19
2 19 20
2 20 21
2 21 22
2 22 23
2 23 24
2 24 25
2 25 26
2 26 27
2 27 28
2 28 29
2 29 30
2 30 31
2 31 32
2 32 33
2 33 34
2 34 35
2 35 36
2 36 37
2 37 38
2 38 39
2 39 40
2 40 41
2 41 42
2 42 43
2 43 44
2 44 45
2 45 46
2 46 47
2 47 48
2 48 49
2 49 50

CELL_TYPES 50
4
4
4
4
4
4
4
4
4
4
4
4
4
4
4
4
4
4
4
4
4
4
4
4
4
4
4
4
4
4
4
4
4
4
4
4
4
4
4
4
4
4
4
4
4
4
4
4
4
4

POINT_DATA 51

SCALARS zone float
LOOKUP_TABLE default
1.0
1.0
1.0
1.0
1.0
1.0
1.0
1.0
1.0
1.0
1.0
1.0
1.0
1.0
1.0
1.0
1.0
1.0
1.0
1.0
1.0
1.0
1.0
1.0
1.0
1.0
1.0
1.0
1.0
1.0
1.0
1.0
1.0
1.0
1.0
1.0
1.0
1.0
1.0
1.0
1.0
1.0
1.0
1.0
1.0
1.0
1.0
1.0
1.0
1.0
1.0

VECTORS normals float
-0.00022568028362002224 -0.0005186771741136909 -0.0020023484248667955
-0.00041008330299519 -0.0012069686781615019 -0.003919918555766344
-0.0004114889306947589 -0.001432640478014946 -0.0037807887420058246
-0.0004941182560287416 -0.0015368955209851265 -0.003674192819744348
-0.00050858169561252 -0.0015342878177762032 -0.003596230410039425
-0.00037636776687577367 -0.0012660190695896745 -0.0035894517786800857
-0.00013244299043435603 -0.0009387074387632309 -0.003598493756726384
0.00010425192886032163 -0.000886670604813844 -0.003533775918185711
0.00024776963982731104 -0.0008746524690650405 -0.0034583352971822028
0.00029544899007305503 -0.0007838644669391215 -0.0034040007740259175
0.00027896405663341284 -0.0008064788416959345 -0.0033192802220582966
0.00022802104649599642 -0.0008545041782781481 -0.0032277507707476616
0.00016584688273724169 -0.0008212868124246597 -0.0031579905189573765
0.00010907424439210443 -0.0007497138576582074 -0.003098507411777973
6.713013135595247e-5 -0.0007091244333423674 -0.003030722262337804
4.280570647097193e-5 -0.0007209284231066704 -0.0029488983564078808
3.3935823012143373e-5 -0.0007636813097633421 -0.002858781721442938
3.555617877282202e-5 -0.0007952930172905326 -0.002771650440990925
4.251242717145942e-5 -0.0007855409057810903 -0.0026956023648381233
5.1016584620811045e-5 -0.0007352466927841306 -0.002630417700856924
5.867081563337706e-5 -0.0006684567197225988 -0.00256965309381485
6.413481605704874e-5 -0.0006110895192250609 -0.0025063634384423494
6.685699190711603e-5 -0.0005750247510150075 -0.0024373659398406744
6.685387052129954e-5 -0.0005590335931628942 -0.0023629898205399513
6.452756497310475e-5 -0.0005566731560975313 -0.00228496128693223
6.0515933000715456e-5 -0.0005610459484159946 -0.002205128548666835
5.557234908337704e-5 -0.0005658818990923464 -0.002125171711668372
5.047163722338155e-5 -0.000565799477044493 -0.002046532928943634
4.5931661588838324e-5 -0.0005565315950661898 -0.0019703551661223173
4.24893842136953e-5 -0.0005356919718906283 -0.0018972781253978612
4.035446181660518e-5 -0.0005038547678850591 -0.001827147789299488
3.940596798202023e-5 -0.00046437169658020144 -0.0017590662464499474
3.931512765120715e-5 -0.0004220764094498008 -0.0016917382599785924
3.966056101489812e-5 -0.0003821211284957826 -0.0016237832605838773
4.001240085926838e-5 -0.00034915850847028196 -0.0015539544401690364
3.999012187705375e-5 -0.00032680737785995007 -0.001481282408349216
3.9298683986999094e-5 -0.0003169385308865458 -0.0014052657643333077
3.774720971705392e-5 -0.00031758201657794416 -0.001326432335190475
3.52538627339527e-5 -0.00032180972630158067 -0.00124663847964257
3.184030356351286e-5 -0.0003202281950507313 -0.0011684013297781348
2.7618556487141177e-5 -0.0003043792676180601 -0.0010939870262518525
2.2772850570618175e-5 -0.00026850285939872265 -0.0010249390034005046
1.7538583051646128e-5 -0.00020789651898667216 -0.0009625173988752067
1.2180190424260218e-5 -0.00011675015412038194 -0.0009082789765670896
6.969491550989915e-6 8.495298970956355e-6 -0.0008631774107925594
2.165645810237038e-6 0.00016395555576309562 -0.0008261718321591616
-2.002310793614015e-6 0.0003369624901097268 -0.0007938679191283881
-5.3496896725846455e-6 0.0005079751717858016 -0.0007610296015627682
-7.746687515464146e-6 0.0006542016635648906 -0.0007215498480945826
-9.125015822064597e-6 0.0007537396741099656 -0.0006695599877275527
-4.777483354700962e-6 0.0003946419165004045 -0.0003198767371941358

CELL_DATA 50

VECTORS liftinglineloading               float
0.08586825430393219 0.09300373494625092 -0.016399066895246506
0.11943255364894867 0.14929868280887604 -0.026325386017560955
-0.04890090972185135 0.03279925510287285 -0.0057833935134112835
0.11209466308355331 0.07486716657876968 -0.013201101683080196
0.14668256044387817 0.09605848044157028 -0.016937702894210815
-0.22114382684230807 0.19945913553237915 -0.03517002612352371
-0.8603171110153198 0.42067909240722656 -0.07417707145214081
-1.8386768102645876 0.6876702308654785 -0.1212548166513443
-2.8487935066223145 0.9252999424934387 -0.16315534710884094
-3.896597385406494 1.1476775407791138 -0.20236651599407196
-4.724795341491699 1.2918596267700195 -0.2277897149324417
-5.696366786956787 1.4627166986465454 -0.2579164206981659
-6.635660171508789 1.5986765623092651 -0.28188982605934143
-6.764906406402587 1.5845321416854858 -0.2793957591056824
-6.95641803741455 1.5527697801589966 -0.2737952172756195
-7.413269996643067 1.5676485300064087 -0.2764187455177307
-7.605045318603516 1.5478566884994507 -0.2729288935661316
-8.065607070922852 1.557480812072754 -0.27462586760520935
-8.308186531066895 1.546976089477539 -0.2727736234664917
-8.421745300292969 1.5441163778305054 -0.2722693681716919
-8.806220054626465 1.544568419456482 -0.272349089384079
-9.090913772583008 1.4964005947113037 -0.26385578513145447
-9.140162467956543 1.4435677528381348 -0.25453993678092957
-9.327155113220215 1.4176900386810303 -0.2499770075082779
-9.524901390075684 1.3861885070800781 -0.24442242085933688
-9.765960693359375 1.3611814975738525 -0.2400130331516266
-10.033483505249023 1.3319456577301025 -0.2348579466342926
-10.270586967468262 1.2903813123703003 -0.22752904891967776
-10.547870635986328 1.2490174770355225 -0.2202354818582535
-10.83942699432373 1.206068754196167 -0.2126624584197998
-10.95559024810791 1.1553030014038086 -0.20371107757091522
-11.50692367553711 1.1319665908813477 -0.19959624111652374
-11.548803329467773 1.0736489295959473 -0.18931326270103455
-11.572335243225098 1.0299246311187744 -0.18160350620746613
-11.572715759277344 0.9928757548332214 -0.17507077753543854
-11.519575119018555 0.9571046233177185 -0.16876336932182312
-11.420573234558105 0.935613989830017 -0.16497398912906647
-11.24135684967041 0.9199500679969788 -0.16221201419830322
-11.045833587646484 0.8967626094818116 -0.1581234335899353
-10.685693740844727 0.8728641867637634 -0.15390950441360474
-10.397412300109863 0.8465141654014587 -0.14926329255104065
-9.780464172363281 0.810445249080658 -0.14290335774421692
-8.850630760192871 0.9110263586044313 -0.16063852608203888
-7.558092594146729 0.9704575538635254 -0.1711178570985794
-6.500904560089111 1.1331499814987183 -0.1998049020767212
-5.413708686828613 1.1894956827163696 -0.20974019169807434
-4.60117244720459 1.2270302772521973 -0.21635854244232178
-3.6738684177398677 1.269059658050537 -0.22376945614814758
-2.6269023418426514 1.2908985614776611 -0.22762024402618405
-1.5028506517410278 1.3482027053833008 -0.23772451281547544