# vtk DataFile Version 4.0
 
ASCII
DATASET UNSTRUCTURED_GRID
POINTS 51 float
0.0029255072586238384 0.006541928742080927 0.003834526753053069
0.0024741466622799635 0.008258931338787079 0.007598248776048422
0.0021053405944257975 0.010280566290020943 0.01113608293235302
0.0016511689173057675 0.012393737211823463 0.014547398313879965
0.001117104198783636 0.014583693817257881 0.01783907227218151
0.0006340054678730667 0.016664652153849602 0.021097736433148384
0.0003643686359282583 0.0183238685131073 0.024469228461384773
0.0003691194870043546 0.019763289019465446 0.02785937674343586
0.000572872522752732 0.021297534927725792 0.031121470034122464
0.0008646587957628071 0.02268708497285843 0.03436720371246338
0.0011637704446911812 0.024023644626140594 0.0375538095831871
0.001422586850821972 0.02542831189930439 0.04062482342123985
0.0016198125667870045 0.026827674359083176 0.043614473193883896
0.0017542806454002857 0.028142688795924187 0.04655962064862251
0.001837961026467383 0.029380423948168755 0.049456965178251266
0.0018885409226641061 0.03059194982051849 0.052282698452472694
0.001923572504892945 0.031824517995119095 0.05501478537917138
0.0019564125686883926 0.03308895230293274 0.05764817818999291
0.0019946848042309284 0.03435352072119713 0.06019767001271248
0.002041437430307269 0.03557233884930611 0.06268466264009476
0.00209671794436872 0.03671520948410034 0.06512323021888733
0.002158778952434659 0.03778137266635895 0.06751373410224915
0.002224987605586648 0.03878927230834961 0.06984757632017136
0.002292493125423789 0.039760440587997437 0.07211470603942871
0.0023586952593177557 0.04071101173758507 0.07430760562419891
0.0024215481244027615 0.041650429368019104 0.07642187178134918
0.0024797271471470594 0.042581889778375626 0.07845601439476013
0.0025326928589493036 0.043503064662218094 0.08041111379861832
0.0025806704070419073 0.04440705105662346 0.0822903960943222
0.002624556189402938 0.04528351500630379 0.08409867435693741
0.0026656491681933403 0.04612107574939728 0.08584126085042953
0.0027052650693804026 0.04691047593951225 0.0875224694609642
0.002744461176916957 0.04764662683010101 0.08914466947317123
0.002783895470201969 0.04832933843135834 0.09070795774459839
0.0028237823862582445 0.048963192850351334 0.09221018850803375
0.0028639202937483788 0.049556732177734375 0.09364738315343857
0.0029037625063210726 0.05012132227420807 0.09501424431800842
0.0029425176326185465 0.050669021904468536 0.09630514681339264
0.002979256911203265 0.05120750144124032 0.0975165143609047
0.0030130252707749605 0.05173581466078758 0.0986487865447998
0.003042937722057104 0.052244007587432854 0.09970659762620926
0.003068262478336692 0.0527152642607689 0.10069780796766281
0.003088483354076743 0.053128812462091446 0.10163208842277527
0.0031033395789563656 0.053459018468856805 0.10252139717340471
0.0031128437258303165 0.05367420613765717 0.10338050127029418
0.003117278451099992 0.05374206602573395 0.10422447323799133
0.0031171750742942095 0.053638204932212837 0.10506468266248703
0.003113273996859789 0.053354084491729736 0.10590511560440063
0.0031064755748957396 0.052901990711688995 0.10674003511667253
0.003097780514508486 0.052316151559352875 0.10755348950624465
0.0030882256105542183 0.051649950444698334 0.10832058638334273

CELLS 50 150
2 0 1
2 1 2
2 2 3
2 3 4
2 4 5
2 5 6
2 6 7
2 7 8
2 8 9
2 9 10
2 10 11
2 11 12
2 12 13
2 13 14
2 14 15
2 15 16
2 16 17
2 17 18
2 18 19
2 19 20
2 20 21
2 21 22
2 22 23
2 23 24
2 24 25
2 25 26
2 26 27
2 27 28
2 28 29
2 29 30
2 30 31
2 31 32
2 32 33
2 33 34
2 34 35
2 35 36
2 36 37
2 37 38
2 38 39
2 39 40
2 40 41
2 41 42
2 42 43
2 43 44
2 44 45
2 45 46
2 46 47
2 47 48
2 48 49
2 49 50

CELL_TYPES 50
4
4
4
4
4
4
4
4
4
4
4
4
4
4
4
4
4
4
4
4
4
4
4
4
4
4
4
4
4
4
4
4
4
4
4
4
4
4
4
4
4
4
4
4
4
4
4
4
4
4

POINT_DATA 51

SCALARS zone float
LOOKUP_TABLE default
1.0
1.0
1.0
1.0
1.0
1.0
1.0
1.0
1.0
1.0
1.0
1.0
1.0
1.0
1.0
1.0
1.0
1.0
1.0
1.0
1.0
1.0
1.0
1.0
1.0
1.0
1.0
1.0
1.0
1.0
1.0
1.0
1.0
1.0
1.0
1.0
1.0
1.0
1.0
1.0
1.0
1.0
1.0
1.0
1.0
1.0
1.0
1.0
1.0
1.0
1.0

VECTORS normals float
-0.00022568028362002224 0.0008585014729760587 0.0018818608950823548
-0.00041008330299519 0.0018693187739700077 0.003650778206065297
-0.0004114889306947589 0.002067402470856905 0.0034745747689157724
-0.0004941182560287416 0.0021515635307878256 0.003351494437083602
-0.00050858169561252 0.002135457471013069 0.0032751692924648523
-0.00037636776687577367 0.0018700871150940654 0.0033150780946016316
-0.00013244299043435603 0.0015493181999772787 0.0033808196894824505
0.00010425192886032163 0.001486833905801177 0.003326121252030134
0.00024776963982731104 0.001461898093111813 0.00325391348451376
0.00029544899007305503 0.001363054383546114 0.003216169774532318
0.00027896405663341284 0.0013706135796383023 0.0031288093887269497
0.00022802104649599642 0.0014020154485478997 0.0030303308740258217
0.00016584688273724169 0.0013571889139711857 0.0029673983808606863
0.00010907424439210443 0.0012763742124661803 0.002921247621998191
6.713013135595247e-5 0.0012246306287124753 0.0028615405317395926
4.280570647097193e-5 0.0012220466742292047 0.0027789101004600525
3.3935823012143373e-5 0.0012485014740377665 0.002682738471776247
3.555617877282202e-5 0.0012645027600228786 0.0025914416182786226
4.251242717145942e-5 0.0012416931567713618 0.00251824245788157
5.1016584620811045e-5 0.0011808439157903194 0.002462781500071287
5.867081563337706e-5 0.0011045169085264206 0.002414537826552987
6.413481605704874e-5 0.0010370311792939901 0.0023621716536581516
6.685699190711603e-5 0.0009895330294966698 0.002300485037267208
6.685387052129954e-5 0.0009608694817870854 0.0022300155833363533
6.452756497310475e-5 0.0009449953795410693 0.0021535821724683046
6.0515933000715456e-5 0.0009354389621876179 0.002074202988296747
5.557234908337704e-5 0.0009263171232305466 0.001994621241465211
5.047163722338155e-5 0.0009125804062932731 0.0019171913154423237
4.5931661588838324e-5 0.0008902251720428466 0.001843780279159546
4.24893842136953e-5 0.0008570125210098923 0.0017754322616383433
4.035446181660518e-5 0.00081348093226552 0.0017118959221988919
3.940596798202023e-5 0.0007627754821442068 0.0016517047770321371
3.931512765120715e-5 0.0007094313623383641 0.001592744141817093
3.966056101489812e-5 0.0006582828355021775 0.001532759633846581
4.001240085926838e-5 0.000613695359788835 0.0014697157312184572
3.999012187705375e-5 0.000579064420890063 0.0014020289527252316
3.9298683986999094e-5 0.0005561453872360289 0.001328880898654461
3.774720971705392e-5 0.0005430897581391037 0.001251133275218308
3.52538627339527e-5 0.0005333971930667758 0.001171817653812468
3.184030356351286e-5 0.000518253946211189 0.0010950436117127538
2.7618556487141177e-5 0.0004897239268757403 0.0010245119920000434
2.2772850570618175e-5 0.0004424024955369532 0.0009627428371459246
1.7538583051646128e-5 0.00037187751149758697 0.0009117937879636884
1.2180190424260218e-5 0.0002726974489632994 0.0008742067730054259
6.969491550989915e-6 0.0001415229489794001 0.0008515390218235552
2.165645810237038e-6 -1.8001474018092267e-5 0.0008420910453423858
-2.002310793614015e-6 -0.000193989573745057 0.0008403201936744153
-5.3496896725846455e-6 -0.00036810646997764707 0.0008376768091693522
-7.746687515464146e-6 -0.0005189670482650399 0.0008241888135671615
-9.125015822064597e-6 -0.0006260208319872618 0.0007902733632363379
-4.777483354700962e-6 -0.0003331004118081182 0.0003835459647234529

CELL_DATA 50

VECTORS liftinglineloading               float
0.03018505685031414 -0.04462943598628044 0.016243785619735718
-0.01488419808447361 -0.004444431513547897 0.0016176407225430012
0.05624344199895858 -0.07090821862220764 0.025808479636907578
0.06649217754602432 -0.10928776860237122 0.039777494966983795
-0.11565084010362625 -0.17669613659381866 0.06431213021278381
-0.6676273941993713 -0.30503302812576294 0.11102293431758882
-1.3713680505752563 -0.5231039524078369 0.19039425253868103
-2.2642714977264404 -0.7318753600120544 0.26638084650039673
-3.3058881759643555 -0.9500215053558351 0.34577956795692444
-4.303564071655273 -1.1431477069854736 0.41607174277305603
-5.102764129638672 -1.2689601182937622 0.46186369657516474
-6.059398651123047 -1.4312636852264404 0.5209373831748962
-7.008196830749512 -1.558758020401001 0.5673415064811707
-7.0928850173950195 -1.5338013172149658 0.5582579970359802
-7.403721809387207 -1.5162473917007446 0.5518689155578613
-7.901381015777588 -1.5305263996124268 0.557066023349762
-8.185626029968262 -1.5114715099334717 0.5501306056976318
-8.640089988708496 -1.5071066617965698 0.5485419631004333
-8.966693878173828 -1.4977574348449707 0.5451391339302063
-9.105262756347656 -1.5027769804000854 0.5469660758972168
-9.489283561706543 -1.4943010807037354 0.5438811182975769
-9.7721586227417 -1.4463258981704712 0.5264195799827576
-9.755182266235352 -1.389100432395935 0.5055912137031555
-9.896591186523438 -1.3588035106658936 0.494564026594162
-10.03375244140625 -1.3217651844024658 0.48108321428298945
-10.235739707946777 -1.293563961982727 0.47081875801086426
-10.502230644226074 -1.2625151872634888 0.4595179259777069
-10.787422180175781 -1.2230333089828491 0.44514772295951843
-11.089069366455078 -1.181186318397522 0.429916650056839
-11.399846076965332 -1.1369432210922241 0.4138135015964508
-11.494016647338867 -1.0850683450698853 0.3949325680732727
-12.010693550109863 -1.058366298675537 0.38521385192871094
-12.04583740234375 -0.9970812201499938 0.36290788650512695
-12.061131477355957 -0.9565728306770325 0.34816405177116394
-12.04763126373291 -0.9232776165008544 0.3360455632209778
-11.978851318359375 -0.891893744468689 0.32462278008461
-11.858572006225586 -0.8746237754821777 0.31833702325820923
-11.687454223632812 -0.8612397909164428 0.3134656548500061
-11.471501350402832 -0.8407691717147828 0.3060149550437927
-11.070442199707031 -0.8204306960105896 0.2986123561859131
-10.747035026550293 -0.7971606254577637 0.2901427447795868
-10.084869384765625 -0.7680032849311829 0.2795303463935852
-9.095358848571777 -0.8666047453880311 0.3154183328151703
-7.761311054229735 -0.9263180494308471 0.3371522128582001
-6.663472175598144 -1.086470127105713 0.39544281363487244
-5.5416693687438965 -1.1417726278305054 0.4155712425708771
-4.7005438804626465 -1.1773796081542969 0.42853114008903503
-3.7470870018005367 -1.2170405387878418 0.4429665505886078
-2.792097568511963 -1.232187032699585 0.4484793841838836
-1.4984428882598877 -1.2845375537872314 0.4675334393978119