# vtk DataFile Version 4.0
 
ASCII
DATASET UNSTRUCTURED_GRID
POINTS 51 float
0.0029255072586238384 0.0061828335747122765 0.004390101879835129
0.0024741466622799635 0.007565272971987724 0.008289148099720478
0.0021053405944257975 0.009270871989428997 0.011989717371761799
0.0016511689173057675 0.011078685522079468 0.015572226606309414
0.001117104198783636 0.012973420321941377 0.0190422423183918
0.0006340054678730667 0.014762449078261852 0.02246987447142601
0.0003643686359282583 0.016121506690979004 0.02597314491868019
0.0003691194870043546 0.017259977757930756 0.02947584725916386
0.000572872522752732 0.018504077568650246 0.03285924717783928
0.0008646587957628071 0.019605454057455063 0.03621373698115349
0.0011637704446911812 0.020659197121858597 0.039504703134298325
0.001422586850821972 0.02179086208343506 0.04268645495176315
0.0016198125667870045 0.022924335673451424 0.04578668996691704
0.0017542806454002857 0.02397765964269638 0.04883524402976036
0.001837961026467383 0.024958163499832153 0.051829442381858826
0.0018885409226641061 0.025918802246451374 0.05475001409649849
0.001923572504892945 0.026908559724688526 0.05757912993431092
0.0019564125686883926 0.02793866954743862 0.060312699526548386
0.0019946848042309284 0.02897622436285019 0.06296270340681076
0.002041437430307269 0.029973648488521572 0.06554646044969559
0.00209671794436872 0.030899634584784508 0.06807535886764526
0.002158778952434659 0.03175339475274086 0.07054968923330307
0.002224987605586648 0.03255404904484749 0.07296249270439148
0.002292493125423789 0.03332392871379852 0.07530564069747925
0.0023586952593177557 0.03407976031303406 0.07757304608821869
0.0024215481244027615 0.03483133390545845 0.07976114004850388
0.0024797271471470594 0.035581961274147034 0.0818687230348587
0.0025326928589493036 0.0363292321562767 0.08389666676521301
0.0025806704070419073 0.037065986543893814 0.08584758639335632
0.002624556189402938 0.03778151422739029 0.08772537112236023
0.0026656491681933403 0.0384640097618103 0.08953432738780975
0.0027052650693804026 0.03910388424992561 0.09127793461084366
0.002744461176916957 0.039695847779512405 0.09295812249183655
0.002783895470201969 0.040239714086055756 0.09457496553659439
0.0028237823862582445 0.040740225464105606 0.0961267277598381
0.0028639202937483788 0.041206244379282 0.09761018306016922
0.0029037625063210726 0.041649557650089264 0.0990210473537445
0.0029425176326185465 0.042082663625478745 0.10035477578639984
0.002979256911203265 0.042513515800237656 0.10160846263170244
0.0030130252707749605 0.0429411381483078 0.1027824655175209
0.003042937722057104 0.043355200439691544 0.10388055443763733
0.003068262478336692 0.04373827204108238 0.10490906238555908
0.003088483354076743 0.044068820774555206 0.10587582737207411
0.0031033395789563656 0.04432026296854019 0.10679052770137785
0.0031128437258303165 0.0444597564637661 0.10766512155532837
0.003117278451099992 0.04445379972457886 0.10851179808378221
0.0031171750742942095 0.04427710548043251 0.10933975875377655
0.003113273996859789 0.04392081871628761 0.1101522296667099
0.0031064755748957396 0.043397676199674606 0.11094456911087038
0.003097780514508486 0.04274316877126694 0.11170387268066406
0.0030882256105542183 0.04201264679431915 0.11240997910499571

CELLS 50 150
2 0 1
2 1 2
2 2 3
2 3 4
2 4 5
2 5 6
2 6 7
2 7 8
2 8 9
2 9 10
2 10 11
2 11 12
2 12 13
2 13 14
2 14 15
2 15 16
2 16 17
2 17 18
2 18 19
2 19 20
2 20 21
2 21 22
2 22 23
2 23 24
2 24 25
2 25 26
2 26 27
2 27 28
2 28 29
2 29 30
2 30 31
2 31 32
2 32 33
2 33 34
2 34 35
2 35 36
2 36 37
2 37 38
2 38 39
2 39 40
2 40 41
2 41 42
2 42 43
2 43 44
2 44 45
2 45 46
2 46 47
2 47 48
2 48 49
2 49 50

CELL_TYPES 50
4
4
4
4
4
4
4
4
4
4
4
4
4
4
4
4
4
4
4
4
4
4
4
4
4
4
4
4
4
4
4
4
4
4
4
4
4
4
4
4
4
4
4
4
4
4
4
4
4
4

POINT_DATA 51

SCALARS zone float
LOOKUP_TABLE default
1.0
1.0
1.0
1.0
1.0
1.0
1.0
1.0
1.0
1.0
1.0
1.0
1.0
1.0
1.0
1.0
1.0
1.0
1.0
1.0
1.0
1.0
1.0
1.0
1.0
1.0
1.0
1.0
1.0
1.0
1.0
1.0
1.0
1.0
1.0
1.0
1.0
1.0
1.0
1.0
1.0
1.0
1.0
1.0
1.0
1.0
1.0
1.0
1.0
1.0
1.0

VECTORS normals float
-0.00022568028362002224 0.000691219640430063 0.0019495232263579965
-0.00041008330299519 0.0015440192073583603 0.003799807745963335
-0.0004114889306947589 0.0017567063914611936 0.0036415390204638247
-0.0004941182560287416 0.0018512741662561896 0.0035262620076537132
-0.00050858169561252 0.0018418815452605486 0.0034488236997276545
-0.00037636776687577367 0.0015740428352728486 0.0034654519986361265
-0.00013244299043435603 0.001248764805495739 0.0035029866266995664
0.00010425192886032163 0.0011912854388356209 0.003443050431087613
0.00024776963982731104 0.00117273791693151 0.003368944162502885
0.00029544899007305503 0.0010775598930194974 0.003322729142382741
0.00027896405663341284 0.0010927042458206415 0.0032363601494580503
0.00022802104649599642 0.001132569508627057 0.0031409934163093567
0.00016584688273724169 0.0010933985468000174 0.0030743933748453856
0.00010907424439210443 0.0010169136803597212 0.0030213745776563883
6.713013135595247e-5 0.0009705708362162114 0.0029573850333690643
4.280570647097193e-5 0.0009751985198818147 0.0028748437762260437
3.3935823012143373e-5 0.0010099345818161964 0.0027813438791781664
3.555617877282202e-5 0.0010338319698348641 0.0026917890645563602
4.251242717145942e-5 0.001017488888464868 0.0026168804615736008
5.1016584620811045e-5 0.0009617048781365156 0.0025563272647559643
5.867081563337706e-5 0.0008898730156943202 0.0025016148574650288
6.413481605704874e-5 0.000827208103146404 0.0024435659870505333
6.685699190711603e-5 0.0007852670387364924 0.002377974335104227
6.685387052129954e-5 0.0007628544699400663 0.0023052748292684555
6.452756497310475e-5 0.0007537023047916591 0.002227748977020383
6.0515933000715456e-5 0.0007511005969718099 0.0021478389389812946
5.557234908337704e-5 0.0007489494746550918 0.002067764988169074
5.047163722338155e-5 0.0007420135079883039 0.0019894323777407408
4.5931661588838324e-5 0.0007261415594257414 0.0019143524114042523
4.24893842136953e-5 0.0006990121910348535 0.001843369682319462
4.035446181660518e-5 0.0006611838471144438 0.0017762811621651053
3.940596798202023e-5 0.0006159173208288848 0.0017118998803198335
3.931512765120715e-5 0.000567914976272732 0.0016485142987221477
3.966056101489812e-5 0.000522189075127244 0.0015843001892790198
4.001240085926838e-5 0.00048326593241654336 0.0015176100423559546
3.999012187705375e-5 0.00045466606388799846 0.0014471625909209251
3.9298683986999094e-5 0.0004382094775792211 0.0013722953153774142
3.774720971705392e-5 0.0004319797153584659 0.001293705776333809
3.52538627339527e-5 0.0004292368539609015 0.0012138470774516463
3.184030356351286e-5 0.0004208424943499267 0.0011360454373061657
2.7618556487141177e-5 0.00039856825605966156 0.001063295640051365
2.2772850570618175e-5 0.00035681045847013593 0.0009976372821256518
1.7538583051646128e-5 0.0002909943286795169 0.0009407353936694561
1.2180190424260218e-5 0.0001954676117748022 0.0008946472662501037
6.969491550989915e-6 6.676789780613035e-5 0.0008606331539340317
2.165645810237038e-6 -9.132603736361489e-5 0.0008373176679015161
-2.002310793614015e-6 -0.00026649009669199586 0.0008202152093872427
-5.3496896725846455e-6 -0.0004397140583023429 0.0008024065755307674
-7.746687515464146e-6 -0.0005888250307179987 0.0007758215651847422
-9.125015822064597e-6 -0.0006925154593773186 0.0007327048224397004
-4.777483354700962e-6 -0.00036526110488921404 0.0003530548419803381

CELL_DATA 50

VECTORS liftinglineloading               float
0.031370919197797775 -0.04732557758688927 0.012680849991738796
-0.01599261164665222 -0.0035080001689493656 0.0009399657719768584
0.056309737265110016 -0.07217250019311905 0.019338563084602356
0.069045789539814 -0.11169982701539995 0.029929878190159798
-0.11322208493947981 -0.18082870543003082 0.04845290631055832
-0.667460560798645 -0.3135003447532654 0.08400215953588486
-1.3705425262451172 -0.5375136137008667 0.14402633905410767
-2.276463508605957 -0.7545456290245056 0.2021798938512802
-3.3083372116088867 -0.9768447875976562 0.26174476742744446
-4.269869327545166 -1.1702241897583008 0.3135606348514557
-5.043342590332031 -1.2966877222061157 0.3474464416503906
-6.089066982269287 -1.475255012512207 0.39529338479042053
-7.038530349731445 -1.606199860572815 0.43037995696067816
-7.118271350860596 -1.5796613693237305 0.4232690036296845
-7.394826889038086 -1.5575449466705322 0.4173429310321808
-7.933796405792236 -1.5764353275299072 0.4224045872688293
-8.212034225463867 -1.5562248229980469 0.41698920726776123
-8.657896041870117 -1.5510560274124146 0.4156042039394378
-8.978023529052734 -1.5412310361862183 0.41297161579132086
-9.110422134399414 -1.5461642742156982 0.4142934679985046
-9.489236831665039 -1.5373138189315796 0.4119220077991486
-9.73364543914795 -1.486640214920044 0.3983440399169922
-9.750414848327637 -1.4293222427368164 0.3829857409000397
-9.89646053314209 -1.3983060121536255 0.3746749758720398
-10.039170265197754 -1.3602674007415771 0.3644825518131256
-10.246978759765625 -1.331148386001587 0.35668015480041504
-10.520289421081543 -1.2989455461502075 0.34805139899253845
-10.789016723632812 -1.2582403421401978 0.33714449405670166
-11.086390495300293 -1.2153180837631226 0.32564347982406616
-11.405445098876953 -1.1696075201034546 0.3133954107761383
-11.496922492980957 -1.1166532039642334 0.29920631647109985
-12.027901649475098 -1.0886781215667725 0.29171040654182434
-12.056618690490723 -1.0260297060012817 0.27492383122444153
-12.068375587463379 -0.9845273494720459 0.26380330324172974
-12.054418563842773 -0.9502801895141603 0.2546268105506897
-11.99990463256836 -0.9174082279205323 0.24581879377365112
-11.88048267364502 -0.8996597528457643 0.24106310307979584
-11.712194442749023 -0.885844349861145 0.2373612821102142
-11.50075912475586 -0.8646883368492128 0.23169253766536713
-11.104532241821289 -0.8436980843544006 0.22606822848320007
-10.787270545959473 -0.8196795582771302 0.21963247656822205
-10.130556106567383 -0.789992094039917 0.21167774498462677
-9.144034385681152 -0.8917404413223265 0.23894113302230835
-7.761843681335449 -0.9523229002952575 0.2551741600036621
-6.662829875946045 -1.1169363260269165 0.2992821931838989
-5.540722846984863 -1.1737759113311768 0.31451231241226196
-4.700087070465088 -1.2104378938674927 0.32433587312698364
-3.747707843780518 -1.2513505220413208 0.3352983593940735
-2.8432064056396484 -1.2737116813659668 0.34129002690315247
-1.5283116102218628 -1.3281605243682861 0.355879545211792