# vtk DataFile Version 4.0
 
ASCII
DATASET UNSTRUCTURED_GRID
POINTS 51 float
0.0029255072586238384 -0.0019144223770126698 -0.007337261922657491
0.0024741466622799635 -0.0004671735223382712 -0.011212719604372978
0.0021053405944257975 0.0006049416842870414 -0.015143858268857002
0.0016511689173057675 0.0015228684060275555 -0.01905025914311409
0.001117104198783636 0.0023019001819193363 -0.02292635664343834
0.0006340054678730667 0.003134664613753557 -0.0267020408064127
0.0003643686359282583 0.004345425870269537 -0.03025928884744644
0.0003691194870043546 0.005724798887968063 -0.03367430716753006
0.000572872522752732 0.006946571171283723 -0.03706583380699158
0.0008646587957628071 0.008259091526269913 -0.040343474596738815
0.0011637704446911812 0.009567271918058395 -0.04354183375835419
0.001422586850821972 0.01074555516242981 -0.04670661687850952
0.0016198125667870045 0.011870058253407478 -0.04981011897325516
0.0017542806454002857 0.013022735714912415 -0.05282250791788101
0.001837961026467383 0.014196259900927544 -0.05574645474553109
0.0018885409226641061 0.01533767580986023 -0.05860122665762901
0.001923572504892945 0.016397997736930847 -0.06140466034412383
0.0019564125686883926 0.017365993931889534 -0.06416083872318268
0.0019946848042309284 0.018274571746587753 -0.06685779243707657
0.002041437430307269 0.019171306863427162 -0.06947819143533707
0.00209671794436872 0.020087506622076035 -0.07201065123081207
0.002158778952434659 0.021023955196142197 -0.0744548887014389
0.002224987605586648 0.02196153812110424 -0.07681785523891449
0.002292493125423789 0.022877922281622887 -0.07910767197608948
0.0023586952593177557 0.02375638112425804 -0.08133044838905334
0.0024215481244027615 0.024587122723460197 -0.08348972350358963
0.0024797271471470594 0.02536683715879917 -0.08558671921491623
0.0025326928589493036 0.02609793283045292 -0.0876205563545227
0.0025806704070419073 0.026787571609020237 -0.08958861976861954
0.002624556189402938 0.027446463704109192 -0.09148702770471573
0.0026656491681933403 0.028086412698030472 -0.09331145882606506
0.0027052650693804026 0.028717013075947758 -0.09505844861268997
0.002744461176916957 0.02934354916214943 -0.09672605246305466
0.002783895470201969 0.0299662072211504 -0.09831421077251434
0.0028237823862582445 0.030580244958400726 -0.09982465207576752
0.0028639202937483788 0.03117680177092552 -0.10126060247421265
0.0029037625063210726 0.0317440927028656 -0.10262634605169295
0.0029425176326185465 0.032269615679979324 -0.1039264351129532
0.002979256911203265 0.03274541720747948 -0.10516376048326492
0.0030130252707749605 0.033172477036714554 -0.10633797198534012
0.003042937722057104 0.03356112167239189 -0.10744530707597731
0.003068262478336692 0.03392878174781799 -0.10847942531108858
0.003088483354076743 0.03429699316620827 -0.10943248122930527
0.0031033395789563656 0.03469233959913254 -0.11029481142759323
0.0031128437258303165 0.03514765575528145 -0.11105445027351378
0.003117278451099992 0.03569645434617996 -0.11169920861721039
0.0031171750742942095 0.03636401146650314 -0.11221988499164581
0.003113273996859789 0.03715918958187103 -0.1126132607460022
0.0031064755748957396 0.03806924447417259 -0.11288396269083023
0.003097780514508486 0.03905869647860527 -0.11304491013288498
0.0030882256105542183 0.04007218778133392 -0.11311624944210052

CELLS 50 150
2 0 1
2 1 2
2 2 3
2 3 4
2 4 5
2 5 6
2 6 7
2 7 8
2 8 9
2 9 10
2 10 11
2 11 12
2 12 13
2 13 14
2 14 15
2 15 16
2 16 17
2 17 18
2 18 19
2 19 20
2 20 21
2 21 22
2 22 23
2 23 24
2 24 25
2 25 26
2 26 27
2 27 28
2 28 29
2 29 30
2 30 31
2 31 32
2 32 33
2 33 34
2 34 35
2 35 36
2 36 37
2 37 38
2 38 39
2 39 40
2 40 41
2 41 42
2 42 43
2 43 44
2 44 45
2 45 46
2 46 47
2 47 48
2 48 49
2 49 50

CELL_TYPES 50
4
4
4
4
4
4
4
4
4
4
4
4
4
4
4
4
4
4
4
4
4
4
4
4
4
4
4
4
4
4
4
4
4
4
4
4
4
4
4
4
4
4
4
4
4
4
4
4
4
4

POINT_DATA 51

SCALARS zone float
LOOKUP_TABLE default
1.0
1.0
1.0
1.0
1.0
1.0
1.0
1.0
1.0
1.0
1.0
1.0
1.0
1.0
1.0
1.0
1.0
1.0
1.0
1.0
1.0
1.0
1.0
1.0
1.0
1.0
1.0
1.0
1.0
1.0
1.0
1.0
1.0
1.0
1.0
1.0
1.0
1.0
1.0
1.0
1.0
1.0
1.0
1.0
1.0
1.0
1.0
1.0
1.0
1.0
1.0

VECTORS normals float
-0.00022568028362002224 0.0007236244273371994 -0.0019377288408577442
-0.00041008330299519 0.0012596820015460253 -0.0039032979402691126
-0.0004114889306947589 0.0009950209641829133 -0.003918769769370556
-0.0004941182560287416 0.0008484792779199779 -0.0038912496529519554
-0.00050858169561252 0.0008058981038630009 -0.0038258908316493034
-0.00037636776687577367 0.0010217629605904222 -0.0036664656363427635
-0.00013244299043435603 0.001295067137107253 -0.0034861338790506124
0.00010425192886032163 0.0013005725340917706 -0.0034032731782644983
0.00024776963982731104 0.0012671462027356029 -0.0033345823176205163
0.00029544899007305503 0.0013103503733873367 -0.0032380004413425922
0.00027896405663341284 0.001243232167325914 -0.003181572537869215
0.00022802104649599642 0.0011513929348438978 -0.003134142141789198
0.00016584688273724169 0.0011385901598259807 -0.003057945054024458
0.00010907424439210443 0.0011631011730059981 -0.002968166721984744
6.713013135595247e-5 0.0011574701638892293 -0.0028893593698740005
4.280570647097193e-5 0.0011008685687556863 -0.0028291037306189537
3.3935823012143373e-5 0.0010141587117686868 -0.00277980649843812
3.555617877282202e-5 0.0009382874122820793 -0.0027265644166618586
4.251242717145942e-5 0.0009026565821841358 -0.002658675890415907
5.1016584620811045e-5 0.0009064667974598706 -0.002576432190835476
5.867081563337706e-5 0.0009263247484341264 -0.0024883474688977003
6.413481605704874e-5 0.0009370158077217638 -0.0024035992100834846
6.685699190711603e-5 0.0009269830188713968 -0.0023263939656317234
6.685387052129954e-5 0.0008974217344075441 -0.002256296342238784
6.452756497310475e-5 0.0008545999880880116 -0.002191025298088789
6.0515933000715456e-5 0.0008052278426475823 -0.002128138206899166
5.557234908337704e-5 0.0007554051117040217 -0.002065415261313319
5.047163722338155e-5 0.0007103672251105309 -0.0020009507425129414
4.5931661588838324e-5 0.0006742653204128146 -0.0019332338124513626
4.24893842136953e-5 0.000649420777335763 -0.001861419528722763
4.035446181660518e-5 0.000635275267995894 -0.0017857110360637307
3.940596798202023e-5 0.0006285679410211742 -0.0017072954215109346
3.931512765120715e-5 0.0006245964323170483 -0.0016278838738799093
3.966056101489812e-5 0.0006183484802022576 -0.0015493009705096483
4.001240085926838e-5 0.0006052977405488491 -0.0014731941046193242
3.999012187705375e-5 0.0005819237558171153 -0.0014008445432409644
3.9298683986999094e-5 0.0005464064888656139 -0.001332914805971086
3.774720971705392e-5 0.00050066236872226 -0.001268707332201302
3.52538627339527e-5 0.0004514314059633762 -0.0012057690182700753
3.184030356351286e-5 0.00040785188321024174 -0.0011407736456021667
2.7618556487141177e-5 0.0003781522682402283 -0.0010707264300435781
2.2772850570618175e-5 0.0003679362125694752 -0.000993587775155902
1.7538583051646128e-5 0.00038177845999598503 -0.0009076926507987083
1.2180190424260218e-5 0.00042533129453659063 -0.0008109837654046713
6.969491550989915e-6 0.0005020571406930685 -0.0007022008066996932
2.165645810237038e-6 0.0006081772153265774 -0.0005827192799188197
-2.002310793614015e-6 0.0007313674432225525 -0.000457024754723534
-5.3496896725846455e-6 0.0008526175515726209 -0.00033203637576662004
-7.746687515464146e-6 0.0009497546125203371 -0.00021582437329925597
-9.125015822064597e-6 0.0010014711879193783 -0.0001161440959549509
-4.777483354700962e-6 0.0005067455349490047 -3.567037856555544e-5

CELL_DATA 50

VECTORS liftinglineloading               float
0.004889973439276218 0.008676796220242977 0.0040460568852722645
0.00973903201520443 0.02828153222799301 0.013187894597649573
0.04660419374704361 0.07652568817138672 0.03568451479077339
0.003878747578710318 0.11820653080940248 0.05512060970067978
-0.2566561698913574 0.20579576492309568 0.09596414119005203
-0.8653272986412048 0.33760929107666016 0.1574297994375229
-1.6269243955612183 0.5452299118041992 0.2542448937892914
-2.5355746746063232 0.7419679164886475 0.3459853231906891
-3.6222414970397945 0.9553439021110536 0.44548419117927557
-4.643716335296631 1.1407015323638916 0.5319178700447083
-5.464658260345459 1.261407494544983 0.5882039666175842
-6.414004802703857 1.4157527685165405 0.6601763367652893
-7.328304290771484 1.5310864448547363 0.7139573097229004
-7.347710609436035 1.4958336353302002 0.6975186467170715
-7.673410892486571 1.4806759357452393 0.6904505491256714
-8.153382301330566 1.4906675815582275 0.6951097249984741
-8.399203300476074 1.465600609779358 0.6834207773208618
-8.785820007324219 1.4529964923858643 0.6775434017181396
-9.069729804992676 1.4411555528640747 0.6720218658447266
-9.13187313079834 1.443818211555481 0.6732634902000427
-9.441641807556152 1.432395339012146 0.6679369211196899
-9.634997367858887 1.3838452100753784 0.6452975869178772
-9.546867370605469 1.327895998954773 0.619208037853241
-10.133474349975586 1.3117166757583618 0.6116635203361511
-10.154600143432617 1.2726925611495972 0.5934662818908691
-10.258474349975586 1.2444692850112915 0.5803055167198181
-10.441776275634766 1.2149139642715454 0.5665236711502075
-10.619598388671875 1.1779316663742065 0.5492785573005676
-10.833891868591309 1.1396206617355347 0.5314138531684875
-11.081748008728027 1.099597692489624 0.5127508640289307
-11.155811309814453 1.0523650646209717 0.4907258749008178
-11.67956256866455 1.0297808647155762 0.48019468784332275
-11.711337089538574 0.974697470664978 0.45450887084007263
-11.93043041229248 0.9246407151222228 0.43116703629493713
-11.92364501953125 0.8923265337944031 0.4160986840724945
-11.865578651428223 0.8615570664405823 0.4017506539821625
-11.75806713104248 0.844273328781128 0.39369112253189087
-11.599787712097168 0.8308899402618408 0.38745033740997314
-11.395331382751465 0.8108544945716858 0.37810763716697693
-11.006184577941895 0.7909292578697205 0.3688163757324219
-10.69117259979248 0.7683231830596924 0.35827499628067017
-10.036637306213379 0.7397969365119934 0.34497296810150146
-9.054747581481934 0.8345494270324707 0.3891567885875702
-7.726000785827637 0.8918194174766542 0.41586223244667053
-6.63272523880005 1.0455482006072998 0.4875471591949463
-5.515152931213379 1.0985993146896362 0.5122852921485901
-4.677775859832764 1.1328849792480469 0.5282729268074036
-3.728768110275269 1.171134352684021 0.5461089015007019
-2.827821969985962 1.1919516324996948 0.5558161735534668
-1.5191054344177246 1.2428158521652222 0.5795345902442932