# vtk DataFile Version 4.0
 
ASCII
DATASET UNSTRUCTURED_GRID
POINTS 51 float
0.0029255072586238384 -0.0049122655764222145 0.005776683799922466
0.0024741466622799635 -0.008916962891817093 0.006814037915319205
0.0021053405944257975 -0.012752102687954903 0.008190620690584183
0.0016511689173057675 -0.016478540375828743 0.009679319337010384
0.001117104198783636 -0.020100487396121025 0.011264411732554436
0.0006340054678730667 -0.023671001195907593 0.01274789497256279
0.0003643686359282583 -0.027279391884803772 0.013796450570225714
0.0003691194870043546 -0.030867988243699074 0.014625309035182
0.000572872522752732 -0.034346941858530045 0.015569791197776796
0.0008646587957628071 -0.03778465837240219 0.0163746140897274
0.0011637704446911812 -0.04115494340658188 0.017137520015239716
0.001422586850821972 -0.044423218816518784 0.01798757165670395
0.0016198125667870045 -0.04761044681072235 0.018846528604626656
0.0017542806454002857 -0.05073919892311096 0.01963014528155327
0.001837961026467383 -0.05380745977163314 0.020345956087112427
0.0018885409226641061 -0.05680064484477043 0.021048394963145256
0.001923572504892945 -0.059705257415771484 0.021787812933325768
0.0019564125686883926 -0.06251820921897888 0.022575756534934044
0.0019946848042309284 -0.06524855643510818 0.02337840013206005
0.002041437430307269 -0.06790941208600998 0.02414683811366558
0.00209671794436872 -0.0705093964934349 0.02484889328479767
0.002158778952434659 -0.07304871827363968 0.0254837516695261
0.002224987605586648 -0.07552212476730347 0.026071071624755856
0.002292493125423789 -0.07792345434427261 0.026633800938725468
0.0023586952593177557 -0.08024810254573822 0.02718913927674293
0.0024215481244027615 -0.0824933722615242 0.027747148647904396
0.0024797271471470594 -0.08465835452079773 0.028311230242252346
0.0025326928589493036 -0.08674371987581253 0.028878912329673767
0.0025806704070419073 -0.088751420378685 0.029442830011248592
0.002624556189402938 -0.0906844288110733 0.02999197505414486
0.0026656491681933403 -0.09254597872495651 0.03051421418786049
0.0027052650693804026 -0.09433872252702713 0.030999684706330303
0.002744461176916957 -0.09606411308050156 0.03144295886158943
0.002783895470201969 -0.09772220253944397 0.03184383735060692
0.0028237823862582445 -0.09931167960166931 0.032207198441028595
0.0028639202937483788 -0.10083010792732239 0.0325421541929245
0.0029037625063210726 -0.10227424651384354 0.03286081552505493
0.0029425176326185465 -0.10364063829183578 0.033176030963659286
0.002979256911203265 -0.10492710769176482 0.03349597752094269
0.0030130252707749605 -0.10613391548395157 0.03381964936852455
0.003042937722057104 -0.10726390779018402 0.03413643315434456
0.003068262478336692 -0.1083218902349472 0.03442841023206711
0.003088483354076743 -0.10931378602981567 0.03467344120144844
0.0031033395789563656 -0.11024692654609679 0.03484420105814934
0.0031128437258303165 -0.11113034933805464 0.034906938672065735
0.003117278451099992 -0.11197327822446823 0.03482721373438835
0.0031171750742942095 -0.11278268694877623 0.03457903116941452
0.003113273996859789 -0.11356101930141448 0.0341532863676548
0.0031064755748957396 -0.11430475115776063 0.033563077449798584
0.003097780514508486 -0.11500411480665208 0.03284488245844841
0.0030882256105542183 -0.11564386636018753 0.032055601477622986

CELLS 50 150
2 0 1
2 1 2
2 2 3
2 3 4
2 4 5
2 5 6
2 6 7
2 7 8
2 8 9
2 9 10
2 10 11
2 11 12
2 12 13
2 13 14
2 14 15
2 15 16
2 16 17
2 17 18
2 18 19
2 19 20
2 20 21
2 21 22
2 22 23
2 23 24
2 24 25
2 25 26
2 26 27
2 27 28
2 28 29
2 29 30
2 30 31
2 31 32
2 32 33
2 33 34
2 34 35
2 35 36
2 36 37
2 37 38
2 38 39
2 39 40
2 40 41
2 41 42
2 42 43
2 43 44
2 44 45
2 45 46
2 46 47
2 47 48
2 48 49
2 49 50

CELL_TYPES 50
4
4
4
4
4
4
4
4
4
4
4
4
4
4
4
4
4
4
4
4
4
4
4
4
4
4
4
4
4
4
4
4
4
4
4
4
4
4
4
4
4
4
4
4
4
4
4
4
4
4

POINT_DATA 51

SCALARS zone float
LOOKUP_TABLE default
1.0
1.0
1.0
1.0
1.0
1.0
1.0
1.0
1.0
1.0
1.0
1.0
1.0
1.0
1.0
1.0
1.0
1.0
1.0
1.0
1.0
1.0
1.0
1.0
1.0
1.0
1.0
1.0
1.0
1.0
1.0
1.0
1.0
1.0
1.0
1.0
1.0
1.0
1.0
1.0
1.0
1.0
1.0
1.0
1.0
1.0
1.0
1.0
1.0
1.0
1.0

VECTORS normals float
-0.00022568028362002224 -0.0020023484248667955 0.0005186771741136909
-0.00041008330299519 -0.003919918555766344 0.0012069686781615019
-0.0004114889306947589 -0.0037807887420058246 0.001432640478014946
-0.0004941182560287416 -0.003674192819744348 0.0015368955209851265
-0.00050858169561252 -0.003596230410039425 0.0015342878177762032
-0.00037636776687577367 -0.0035894517786800857 0.0012660190695896745
-0.00013244299043435603 -0.003598493756726384 0.0009387074387632309
0.00010425192886032163 -0.003533775918185711 0.000886670604813844
0.00024776963982731104 -0.0034583352971822028 0.0008746524690650405
0.00029544899007305503 -0.0034040007740259175 0.0007838644669391215
0.00027896405663341284 -0.0033192802220582966 0.0008064788416959345
0.00022802104649599642 -0.0032277507707476616 0.0008545041782781481
0.00016584688273724169 -0.0031579905189573765 0.0008212868124246597
0.00010907424439210443 -0.003098507411777973 0.0007497138576582074
6.713013135595247e-5 -0.003030722262337804 0.0007091244333423674
4.280570647097193e-5 -0.0029488983564078808 0.0007209284231066704
3.3935823012143373e-5 -0.002858781721442938 0.0007636813097633421
3.555617877282202e-5 -0.002771650440990925 0.0007952930172905326
4.251242717145942e-5 -0.0026956023648381233 0.0007855409057810903
5.1016584620811045e-5 -0.002630417700856924 0.0007352466927841306
5.867081563337706e-5 -0.00256965309381485 0.0006684567197225988
6.413481605704874e-5 -0.0025063634384423494 0.0006110895192250609
6.685699190711603e-5 -0.0024373659398406744 0.0005750247510150075
6.685387052129954e-5 -0.0023629898205399513 0.0005590335931628942
6.452756497310475e-5 -0.00228496128693223 0.0005566731560975313
6.0515933000715456e-5 -0.002205128548666835 0.0005610459484159946
5.557234908337704e-5 -0.002125171711668372 0.0005658818990923464
5.047163722338155e-5 -0.002046532928943634 0.000565799477044493
4.5931661588838324e-5 -0.0019703551661223173 0.0005565315950661898
4.24893842136953e-5 -0.0018972781253978612 0.0005356919718906283
4.035446181660518e-5 -0.001827147789299488 0.0005038547678850591
3.940596798202023e-5 -0.0017590662464499474 0.00046437169658020144
3.931512765120715e-5 -0.0016917382599785924 0.0004220764094498008
3.966056101489812e-5 -0.0016237832605838773 0.0003821211284957826
4.001240085926838e-5 -0.0015539544401690364 0.00034915850847028196
3.999012187705375e-5 -0.001481282408349216 0.00032680737785995007
3.9298683986999094e-5 -0.0014052657643333077 0.0003169385308865458
3.774720971705392e-5 -0.001326432335190475 0.00031758201657794416
3.52538627339527e-5 -0.00124663847964257 0.00032180972630158067
3.184030356351286e-5 -0.0011684013297781348 0.0003202281950507313
2.7618556487141177e-5 -0.0010939870262518525 0.0003043792676180601
2.2772850570618175e-5 -0.0010249390034005046 0.00026850285939872265
1.7538583051646128e-5 -0.0009625173988752067 0.00020789651898667216
1.2180190424260218e-5 -0.0009082789765670896 0.00011675015412038194
6.969491550989915e-6 -0.0008631774107925594 -8.495298970956355e-6
2.165645810237038e-6 -0.0008261718321591616 -0.00016395555576309562
-2.002310793614015e-6 -0.0007938679191283881 -0.0003369624901097268
-5.3496896725846455e-6 -0.0007610296015627682 -0.0005079751717858016
-7.746687515464146e-6 -0.0007215498480945826 -0.0006542016635648906
-9.125015822064597e-6 -0.0006695599877275527 -0.0007537396741099656
-4.777483354700962e-6 -0.0003198767371941358 -0.0003946419165004045

CELL_DATA 50

VECTORS liftinglineloading               float
0.05317419022321702 -0.012142994441092014 -0.06886634230613708
0.012916216626763344 -0.006167828571051359 -0.03497949242591858
0.024985432624816895 -0.009655378758907318 -0.05475837737321854
0.12447358667850493 -0.017417680472135544 -0.0987805724143982
-0.008256250061094761 -0.02666513435542583 -0.1512254923582077
-0.544215738773346 -0.05092239379882812 -0.28879526257514954
-1.2839707136154175 -0.09382251650094986 -0.5320939421653748
-2.268484592437744 -0.13606879115104675 -0.7716844081878662
-3.3552980422973637 -0.17752589285373688 -1.006799340248108
-4.414573669433594 -0.2144765555858612 -1.2163569927215576
-5.249757289886475 -0.23810671269893643 -1.3503702878952026
-6.196385860443115 -0.2676335275173187 -1.5178251266479492
-7.087408065795898 -0.2895669639110565 -1.6422158479690552
-7.086990833282471 -0.28302034735679626 -1.6050881147384644
-7.447947978973389 -0.2804851830005646 -1.5907105207443237
-7.858649253845214 -0.2815263271331787 -1.596615195274353
-8.027201652526855 -0.2764029800891876 -1.5675592422485352
-8.395851135253906 -0.27517545223236084 -1.560597538948059
-8.61285400390625 -0.27272748947143555 -1.546714425086975
-8.863819122314453 -0.2743813395500183 -1.5560938119888306
-9.139503479003906 -0.27244502305984497 -1.5451124906539917
-9.401559829711914 -0.2637012302875519 -1.4955240488052368
-9.406073570251465 -0.25374752283096313 -1.4390736818313599
-9.551372528076172 -0.24863538146018985 -1.410081386566162
-9.707539558410645 -0.24248568713665009 -1.3752046823501587
-9.925683975219727 -0.23778676986694336 -1.3485558032989502
-10.19610595703125 -0.23247739672660825 -1.318444848060608
-10.43996810913086 -0.2253892868757248 -1.2782461643218994
-10.734935760498047 -0.21799853444099423 -1.2363311052322388
-11.06002140045166 -0.2102357447147369 -1.1923061609268188
-11.193202018737793 -0.2009875327348709 -1.1398569345474243
-11.753809928894043 -0.19636286795139313 -1.1136291027069092
-11.810132026672363 -0.1854632943868637 -1.0518145561218262
-11.848069190979004 -0.17784202098846436 -1.0085922479629517
-11.860257148742676 -0.171481192111969 -0.9725182056427002
-11.818902015686035 -0.1654336005449295 -0.9382206201553345
-11.729036331176758 -0.1619792878627777 -0.9186302423477174
-11.591349601745605 -0.15928788483142853 -0.9033665060997009
-11.411977767944336 -0.15532054007053375 -0.8808665871620178
-10.905863761901855 -0.15207132697105408 -0.8624393343925476
-10.6102876663208 -0.1476208120584488 -0.8371992111206055
-9.978243827819824 -0.14192122220993042 -0.8048752546310425
-9.020426750183105 -0.15998587012290955 -0.9073249697685241
-7.71095085144043 -0.17091260850429535 -0.9692935943603516
-6.634599208831787 -0.20040711760520935 -1.1365652084350586
-5.530637264251709 -0.21073034405708316 -1.1951111555099487
-4.7039313316345215 -0.21748843789100644 -1.23343825340271
-3.7617464065551762 -0.22503152489662173 -1.2762172222137451
-2.862771511077881 -0.22926673293113708 -1.3002362251281738
-1.5440788269042969 -0.23926094174385068 -1.3569161891937256