# vtk DataFile Version 4.0
 
ASCII
DATASET UNSTRUCTURED_GRID
POINTS 51 float
0.0029255072586238384 0.0037482131738215685 0.006591761950403452
0.0024741466622799635 0.003353320294991136 0.010709742084145546
0.0021053405944257975 0.0033351900056004524 0.014784414321184157
0.0016511689173057675 0.0034595918841660023 0.018795285373926163
0.001117104198783636 0.0037103130016475916 0.022740935906767845
0.0006340054678730667 0.003883143188431859 0.026603501290082928
0.0003643686359282583 0.003634320804849267 0.03035290725529194
0.0003691194870043546 0.0031858214642852545 0.03400857001543045
0.000572872522752732 0.0028834715485572815 0.03760075196623802
0.0008646587957628071 0.0024639898911118507 0.041106414049863815
0.0011637704446911812 0.002028181217610836 0.04453437402844429
0.001422586850821972 0.0017091528279706836 0.047896284610033035
0.0016198125667870045 0.0014262120239436626 0.05118507891893387
0.0017542806454002857 0.0010924744419753551 0.05439315736293793
0.001837961026467383 0.0007157094078138471 0.05752120167016984
0.0018885409226641061 0.0003520563477650285 0.060574121773242944
0.001923572504892945 5.34464415977709e-5 0.06355646252632141
0.0019564125686883926 -0.00016821410099510103 0.06646925956010818
0.0019946848042309284 -0.00034781210706569254 0.06930947303771973
0.002041437430307269 -0.0005357807967811823 0.07207267731428146
0.00209671794436872 -0.0007653119973838329 0.07475598156452179
0.002158778952434659 -0.0010372393298894167 0.07735929638147354
0.002224987605586648 -0.001331293024122715 0.07988440990447998
0.002292493125423789 -0.0016238028183579445 0.08233338594436646
0.0023586952593177557 -0.0018970336532220244 0.08470778167247772
0.0024215481244027615 -0.0021406051237136126 0.08700849860906601
0.0024797271471470594 -0.002351009054109454 0.08923584222793579
0.0025326928589493036 -0.0025307980831712484 0.09138960391283035
0.0025806704070419073 -0.002687564818188548 0.09346909821033478
0.002624556189402938 -0.0028326630126684904 0.09547334909439087
0.0026656491681933403 -0.002978607779368758 0.09740124642848969
0.0027052650693804026 -0.003135568695142865 0.09925191849470139
0.002744461176916957 -0.0033091467339545484 0.10102485865354538
0.002783895470201969 -0.0034995416644960638 0.10272006690502167
0.0028237823862582445 -0.003701726906001568 0.10433796048164368
0.0028639202937483788 -0.003906305879354477 0.10587938129901885
0.0029037625063210726 -0.004100786987692118 0.10734540969133377
0.0029425176326185465 -0.004271914716809988 0.10873721539974211
0.002979256911203265 -0.004411261063069105 0.11005552858114244
0.0030130252707749605 -0.004519861191511154 0.1113002598285675
0.003042937722057104 -0.004608662333339453 0.11247045546770097
0.003068262478336692 -0.004696146119385958 0.11356449127197266
0.003088483354076743 -0.004805141594260931 0.1145803779363632
0.0031033395789563656 -0.004963829182088375 0.11551564186811447
0.0031128437258303165 -0.005207022652029991 0.11636724323034285
0.003117278451099992 -0.005570243578404188 0.11713207513093948
0.0031171750742942095 -0.006080293096601963 0.11780778318643569
0.003113273996859789 -0.006746563594788313 0.11839356273412704
0.0031064755748957396 -0.007555549032986164 0.11889057606458664
0.003097780514508486 -0.008469629101455212 0.11930213123559952
0.0030882256105542183 -0.009430122561752796 0.11963335424661638

CELLS 50 150
2 0 1
2 1 2
2 2 3
2 3 4
2 4 5
2 5 6
2 6 7
2 7 8
2 8 9
2 9 10
2 10 11
2 11 12
2 12 13
2 13 14
2 14 15
2 15 16
2 16 17
2 17 18
2 18 19
2 19 20
2 20 21
2 21 22
2 22 23
2 23 24
2 24 25
2 25 26
2 26 27
2 27 28
2 28 29
2 29 30
2 30 31
2 31 32
2 32 33
2 33 34
2 34 35
2 35 36
2 36 37
2 37 38
2 38 39
2 39 40
2 40 41
2 41 42
2 42 43
2 43 44
2 44 45
2 45 46
2 46 47
2 47 48
2 48 49
2 49 50

CELL_TYPES 50
4
4
4
4
4
4
4
4
4
4
4
4
4
4
4
4
4
4
4
4
4
4
4
4
4
4
4
4
4
4
4
4
4
4
4
4
4
4
4
4
4
4
4
4
4
4
4
4
4
4

POINT_DATA 51

SCALARS zone float
LOOKUP_TABLE default
1.0
1.0
1.0
1.0
1.0
1.0
1.0
1.0
1.0
1.0
1.0
1.0
1.0
1.0
1.0
1.0
1.0
1.0
1.0
1.0
1.0
1.0
1.0
1.0
1.0
1.0
1.0
1.0
1.0
1.0
1.0
1.0
1.0
1.0
1.0
1.0
1.0
1.0
1.0
1.0
1.0
1.0
1.0
1.0
1.0
1.0
1.0
1.0
1.0
1.0
1.0

VECTORS normals float
-0.00022568028362002224 -0.00019744638120755553 0.002058990066871047
-0.00041008330299519 -0.00020651152590289712 0.0040963259525597095
-0.0004114889306947589 5.3135787311475724e-5 0.004042771179229021
-0.0004941182560287416 0.00018756146891973913 0.003978261258453131
-0.00050858169561252 0.00021177565213292834 0.0039041086565703154
-0.00037636776687577367 -3.799607293331064e-5 0.003805985441431403
-0.00013244299043435603 -0.0003486608911771327 0.0037025348283350463
0.00010425192886032163 -0.0003754247154574841 0.003623922355473042
0.00024776963982731104 -0.0003609158447943628 0.003548920853063464
0.00029544899007305503 -0.00042764516547322273 0.003466811729595065
0.00027896405663341284 -0.0003774185024667531 0.0033949350472539663
0.00022802104649599642 -0.0003009845386259258 0.0033253512810915713
0.00016584688273724169 -0.00030833916389383376 0.0032484368421137337
0.00010907424439210443 -0.0003552513080649078 0.0031680616084486246
6.713013135595247e-5 -0.0003702090762089938 0.0030904822051525116
4.280570647097193e-5 -0.00033113150857388973 0.003017629962414503
3.3935823012143373e-5 -0.00026013521710410714 0.0029475705232471228
3.555617877282202e-5 -0.0002006292634177953 0.002876505721360445
4.251242717145942e-5 -0.000183783340617083 0.002801708411425352
5.1016584620811045e-5 -0.0002087499451590702 0.002723253332078457
5.867081563337706e-5 -0.00025072923745028675 0.002643309533596039
6.413481605704874e-5 -0.00028299051336944103 0.0025642162654548883
6.685699190711603e-5 -0.00029328177333809435 0.002487044781446457
6.685387052129954e-5 -0.0002828703436534852 0.0024116847198456526
6.452756497310475e-5 -0.0002584011235740036 0.0023375547025352716
6.0515933000715456e-5 -0.0002269876567879692 0.0022640321403741837
5.557234908337704e-5 -0.00019509647972881794 0.0021905512548983097
5.047163722338155e-5 -0.00016827786748763174 0.0021166265942156315
4.5931661588838324e-5 -0.0001509325229562819 0.002041873289272189
4.24893842136953e-5 -0.0001455215096939355 0.001966075738891959
4.035446181660518e-5 -0.00015145276847761124 0.0018892857478931544
3.940596798202023e-5 -0.00016526943363714963 0.001811806112527847
3.931512765120715e-5 -0.0001819864846765995 0.0017340725753456354
3.966056101489812e-5 -0.00019629015878308564 0.0016565502155572178
4.001240085926838e-5 -0.00020338204922154546 0.0015796588268131018
3.999012187705375e-5 -0.00019952995353378356 0.0015037248376756907
3.9298683986999094e-5 -0.00018280440417584032 0.001428917283192277
3.774720971705392e-5 -0.00015523711044806987 0.0013550581643357873
3.52538627339527e-5 -0.00012397326645441353 0.0012815224472433329
3.184030356351286e-5 -9.870070789474994e-5 0.0012074625119566917
2.7618556487141177e-5 -8.81426312844269e-5 0.0011321153724566102
2.2772850570618175e-5 -9.823963046073914e-5 0.0010549610015004873
1.7538583051646128e-5 -0.00013384151679929346 0.0009755752980709076
1.2180190424260218e-5 -0.00020094045612495393 0.0008934339857660235
6.969491550989915e-6 -0.0003032070235349238 0.0008082158747129142
2.165645810237038e-6 -0.0004366352513898164 0.000720271491445601
-2.002310793614015e-6 -0.0005881600081920624 0.0006307438598014414
-5.3496896725846455e-6 -0.0007376279681921005 0.0005413961480371654
-7.746687515464146e-6 -0.0008615330443717539 0.0004542849201243371
-9.125015822064597e-6 -0.0009372865897603333 0.00037138641346246004
-4.777483354700962e-6 -0.00048024641000665724 0.00016561032680328935

CELL_DATA 50

VECTORS liftinglineloading               float
0.003405464580282569 -0.006971895229071379 -0.0012293332256376743
0.020421888679265976 -0.043095801025629044 -0.007598952390253544
0.040820926427841187 -0.08447980135679245 -0.014896067790687082
-0.011720745824277401 -0.13176186382770538 -0.023233171552419662
-0.27996405959129333 -0.22929449379444122 -0.04043080657720566
-0.8793521523475647 -0.3701605200767517 -0.06526928395032883
-1.6287686824798584 -0.5934981107711792 -0.10464973002672195
-2.591174364089966 -0.813077449798584 -0.1433674842119217
-3.698140859603882 -1.0473921298980713 -0.18468348681926727
-4.736008167266846 -1.2502946853637695 -0.2204606980085373
-5.57357931137085 -1.3831502199172974 -0.24388670921325684
-6.527936935424804 -1.550912857055664 -0.2734677791595459
-7.433621883392334 -1.674239158630371 -0.2952135503292084
-7.436052322387695 -1.6331442594528198 -0.28796741366386414
-7.760653972625732 -1.6169793605804443 -0.28511708974838257
-8.224263191223145 -1.625945806503296 -0.2866981327533722
-8.453842163085938 -1.5966989994049072 -0.281541109085083
-8.817623138427734 -1.580926537513733 -0.27876001596450806
-9.082645416259766 -1.5672091245651245 -0.2763412594795227
-9.125702857971191 -1.5693198442459106 -0.27671343088150024
-9.418225288391113 -1.5565178394317627 -0.27445608377456665
-10.14719295501709 -1.5237756967544556 -0.2686827480792999
-10.063680648803711 -1.4603410959243774 -0.25749751925468445
-10.100357055664062 -1.4242790937423706 -0.251138836145401
-10.134819030761719 -1.3823180198669434 -0.24373996257781982
-10.250931739807129 -1.3518271446228027 -0.2383635938167572
-10.44602108001709 -1.3197038173675537 -0.2326993942260742
-10.637702941894531 -1.2794495820999146 -0.22560149431228638
-10.867295265197754 -1.2376058101654053 -0.21822330355644223
-11.132085800170898 -1.1936664581298828 -0.2104756087064743
-11.344493865966797 -1.1381522417068481 -0.20068694651126862
-11.870354652404785 -1.1113898754119873 -0.19596801698207855
-11.904548645019531 -1.0490586757659912 -0.18497735261917114
-11.927882194519043 -1.0063029527664185 -0.1774383783340454
-11.928776741027832 -0.9706422090530397 -0.17115041613578796
-11.876914024353027 -0.9367907643318176 -0.1651814877986908
-11.774680137634277 -0.9177215099334717 -0.16181907057762146
-11.621216773986816 -0.90296471118927 -0.15921704471111298
-11.421567916870117 -0.8810003399848937 -0.1553441286087036
-11.036282539367676 -0.8592408895492554 -0.15150736272335052
-10.72541618347168 -0.8345836997032164 -0.1471596211194992
-10.073567390441895 -0.8038938045501709 -0.14174816012382507
-9.091422080993652 -0.907142400741577 -0.15995368361473083
-7.762570858001708 -0.9698312878608704 -0.1710074245929718
-6.890917778015137 -1.146338701248169 -0.20213045179843903
-5.745691299438477 -1.207547664642334 -0.21292324364185333
-4.883272647857666 -1.2462259531021118 -0.2197432518005371
-3.9058938026428223 -1.2891662120819092 -0.22731478512287143
-2.9712235927581787 -1.313370943069458 -0.23158273100852966
-1.6024507284164429 -1.3698073625564575 -0.24153399467468262