# vtk DataFile Version 4.0
 
ASCII
DATASET UNSTRUCTURED_GRID
POINTS 51 float
0.0029255072586238384 0.003834526753053069 -0.006541928742080927
0.0024741466622799635 0.007598248776048422 -0.008258931338787079
0.0021053405944257975 0.01113608293235302 -0.010280566290020943
0.0016511689173057675 0.014547398313879965 -0.012393737211823463
0.001117104198783636 0.01783907227218151 -0.014583693817257881
0.0006340054678730667 0.021097736433148384 -0.016664652153849602
0.0003643686359282583 0.024469228461384773 -0.0183238685131073
0.0003691194870043546 0.02785937674343586 -0.019763289019465446
0.000572872522752732 0.031121470034122464 -0.021297534927725792
0.0008646587957628071 0.03436720371246338 -0.02268708497285843
0.0011637704446911812 0.0375538095831871 -0.024023644626140594
0.001422586850821972 0.04062482342123985 -0.02542831189930439
0.0016198125667870045 0.043614473193883896 -0.026827674359083176
0.0017542806454002857 0.04655962064862251 -0.028142688795924187
0.001837961026467383 0.049456965178251266 -0.029380423948168755
0.0018885409226641061 0.052282698452472694 -0.03059194982051849
0.001923572504892945 0.05501478537917138 -0.031824517995119095
0.0019564125686883926 0.05764817818999291 -0.03308895230293274
0.0019946848042309284 0.06019767001271248 -0.03435352072119713
0.002041437430307269 0.06268466264009476 -0.03557233884930611
0.00209671794436872 0.06512323021888733 -0.03671520948410034
0.002158778952434659 0.06751373410224915 -0.03778137266635895
0.002224987605586648 0.06984757632017136 -0.03878927230834961
0.002292493125423789 0.07211470603942871 -0.039760440587997437
0.0023586952593177557 0.07430760562419891 -0.04071101173758507
0.0024215481244027615 0.07642187178134918 -0.041650429368019104
0.0024797271471470594 0.07845601439476013 -0.042581889778375626
0.0025326928589493036 0.08041111379861832 -0.043503064662218094
0.0025806704070419073 0.0822903960943222 -0.04440705105662346
0.002624556189402938 0.08409867435693741 -0.04528351500630379
0.0026656491681933403 0.08584126085042953 -0.04612107574939728
0.0027052650693804026 0.0875224694609642 -0.04691047593951225
0.002744461176916957 0.08914466947317123 -0.04764662683010101
0.002783895470201969 0.09070795774459839 -0.04832933843135834
0.0028237823862582445 0.09221018850803375 -0.048963192850351334
0.0028639202937483788 0.09364738315343857 -0.049556732177734375
0.0029037625063210726 0.09501424431800842 -0.05012132227420807
0.0029425176326185465 0.09630514681339264 -0.050669021904468536
0.002979256911203265 0.0975165143609047 -0.05120750144124032
0.0030130252707749605 0.0986487865447998 -0.05173581466078758
0.003042937722057104 0.09970659762620926 -0.052244007587432854
0.003068262478336692 0.10069780796766281 -0.0527152642607689
0.003088483354076743 0.10163208842277527 -0.053128812462091446
0.0031033395789563656 0.10252139717340471 -0.053459018468856805
0.0031128437258303165 0.10338050127029418 -0.05367420613765717
0.003117278451099992 0.10422447323799133 -0.05374206602573395
0.0031171750742942095 0.10506468266248703 -0.053638204932212837
0.003113273996859789 0.10590511560440063 -0.053354084491729736
0.0031064755748957396 0.10674003511667253 -0.052901990711688995
0.003097780514508486 0.10755348950624465 -0.052316151559352875
0.0030882256105542183 0.10832058638334273 -0.051649950444698334

CELLS 50 150
2 0 1
2 1 2
2 2 3
2 3 4
2 4 5
2 5 6
2 6 7
2 7 8
2 8 9
2 9 10
2 10 11
2 11 12
2 12 13
2 13 14
2 14 15
2 15 16
2 16 17
2 17 18
2 18 19
2 19 20
2 20 21
2 21 22
2 22 23
2 23 24
2 24 25
2 25 26
2 26 27
2 27 28
2 28 29
2 29 30
2 30 31
2 31 32
2 32 33
2 33 34
2 34 35
2 35 36
2 36 37
2 37 38
2 38 39
2 39 40
2 40 41
2 41 42
2 42 43
2 43 44
2 44 45
2 45 46
2 46 47
2 47 48
2 48 49
2 49 50

CELL_TYPES 50
4
4
4
4
4
4
4
4
4
4
4
4
4
4
4
4
4
4
4
4
4
4
4
4
4
4
4
4
4
4
4
4
4
4
4
4
4
4
4
4
4
4
4
4
4
4
4
4
4
4

POINT_DATA 51

SCALARS zone float
LOOKUP_TABLE default
1.0
1.0
1.0
1.0
1.0
1.0
1.0
1.0
1.0
1.0
1.0
1.0
1.0
1.0
1.0
1.0
1.0
1.0
1.0
1.0
1.0
1.0
1.0
1.0
1.0
1.0
1.0
1.0
1.0
1.0
1.0
1.0
1.0
1.0
1.0
1.0
1.0
1.0
1.0
1.0
1.0
1.0
1.0
1.0
1.0
1.0
1.0
1.0
1.0
1.0
1.0

VECTORS normals float
-0.00022568028362002224 0.0018818608950823548 -0.0008585014729760587
-0.00041008330299519 0.003650778206065297 -0.0018693187739700077
-0.0004114889306947589 0.0034745747689157724 -0.002067402470856905
-0.0004941182560287416 0.003351494437083602 -0.0021515635307878256
-0.00050858169561252 0.0032751692924648523 -0.002135457471013069
-0.00037636776687577367 0.0033150780946016316 -0.0018700871150940654
-0.00013244299043435603 0.0033808196894824505 -0.0015493181999772787
0.00010425192886032163 0.003326121252030134 -0.001486833905801177
0.00024776963982731104 0.00325391348451376 -0.001461898093111813
0.00029544899007305503 0.003216169774532318 -0.001363054383546114
0.00027896405663341284 0.0031288093887269497 -0.0013706135796383023
0.00022802104649599642 0.0030303308740258217 -0.0014020154485478997
0.00016584688273724169 0.0029673983808606863 -0.0013571889139711857
0.00010907424439210443 0.002921247621998191 -0.0012763742124661803
6.713013135595247e-5 0.0028615405317395926 -0.0012246306287124753
4.280570647097193e-5 0.0027789101004600525 -0.0012220466742292047
3.3935823012143373e-5 0.002682738471776247 -0.0012485014740377665
3.555617877282202e-5 0.0025914416182786226 -0.0012645027600228786
4.251242717145942e-5 0.00251824245788157 -0.0012416931567713618
5.1016584620811045e-5 0.002462781500071287 -0.0011808439157903194
5.867081563337706e-5 0.002414537826552987 -0.0011045169085264206
6.413481605704874e-5 0.0023621716536581516 -0.0010370311792939901
6.685699190711603e-5 0.002300485037267208 -0.0009895330294966698
6.685387052129954e-5 0.0022300155833363533 -0.0009608694817870854
6.452756497310475e-5 0.0021535821724683046 -0.0009449953795410693
6.0515933000715456e-5 0.002074202988296747 -0.0009354389621876179
5.557234908337704e-5 0.001994621241465211 -0.0009263171232305466
5.047163722338155e-5 0.0019171913154423237 -0.0009125804062932731
4.5931661588838324e-5 0.001843780279159546 -0.0008902251720428466
4.24893842136953e-5 0.0017754322616383433 -0.0008570125210098923
4.035446181660518e-5 0.0017118959221988919 -0.00081348093226552
3.940596798202023e-5 0.0016517047770321371 -0.0007627754821442068
3.931512765120715e-5 0.001592744141817093 -0.0007094313623383641
3.966056101489812e-5 0.001532759633846581 -0.0006582828355021775
4.001240085926838e-5 0.0014697157312184572 -0.000613695359788835
3.999012187705375e-5 0.0014020289527252316 -0.000579064420890063
3.9298683986999094e-5 0.001328880898654461 -0.0005561453872360289
3.774720971705392e-5 0.001251133275218308 -0.0005430897581391037
3.52538627339527e-5 0.001171817653812468 -0.0005333971930667758
3.184030356351286e-5 0.0010950436117127538 -0.000518253946211189
2.7618556487141177e-5 0.0010245119920000434 -0.0004897239268757403
2.2772850570618175e-5 0.0009627428371459246 -0.0004424024955369532
1.7538583051646128e-5 0.0009117937879636884 -0.00037187751149758697
1.2180190424260218e-5 0.0008742067730054259 -0.0002726974489632994
6.969491550989915e-6 0.0008515390218235552 -0.0001415229489794001
2.165645810237038e-6 0.0008420910453423858 1.8001474018092267e-5
-2.002310793614015e-6 0.0008403201936744153 0.000193989573745057
-5.3496896725846455e-6 0.0008376768091693522 0.00036810646997764707
-7.746687515464146e-6 0.0008241888135671615 0.0005189670482650399
-9.125015822064597e-6 0.0007902733632363379 0.0006260208319872618
-4.777483354700962e-6 0.0003835459647234529 0.0003331004118081182

CELL_DATA 50

VECTORS liftinglineloading               float
0.05076070129871369 0.023252487182617188 0.06388568133115768
0.005070452578365803 0.00900971982628107 0.024754002690315247
0.03232168033719063 0.01962592639029026 0.053921792656183236
0.11970683187246323 0.03482583910226822 0.09568320959806442
-0.019816642627120018 0.05372532829642296 0.14760911464691162
-0.5617337822914124 0.10172797739505768 0.27949532866477966
-1.299047827720642 0.18561780452728271 0.5099807381629944
-2.269976854324341 0.26756414771080017 0.7351264357566833
-3.4249801635742188 0.3527853190898895 0.9692696928977966
-4.507084846496582 0.4261630177497864 1.1708732843399048
-5.368870735168457 0.4735192656517029 1.3009834289550781
-6.335822105407715 0.532439649105072 1.462865948677063
-7.239080905914307 0.5756886601448059 1.5816916227340698
-7.233713626861571 0.561871349811554 1.5437288284301758
-7.49161148071289 0.553561806678772 1.5208985805511475
-7.954452991485596 0.557223379611969 1.530958652496338
-8.142786979675293 0.5472133159637451 1.5034562349319458
-8.52313232421875 0.5441710352897644 1.4950976371765137
-8.781575202941895 0.5397927761077881 1.4830684661865234
-8.888476371765137 0.5406524538993835 1.485430359840393
-9.229386329650879 0.5377930998802185 1.4775744676589966
-9.470954895019531 0.5201544165611267 1.4291125535964966
-9.436036109924316 0.4998016357421875 1.3731937408447266
-9.562599182128906 0.48949745297431946 1.3448832035064697
-9.698885917663574 0.47727182507514954 1.311293601989746
-9.89783763885498 0.468068540096283 1.2860077619552612
-10.192671775817871 0.4576987028121948 1.257516860961914
-10.459821701049805 0.44378951191902166 1.2193015813827515
-10.733864784240723 0.42938876152038574 1.1797358989715576
-11.03158187866211 0.41423138976097107 1.1380914449691772
-11.099947929382324 0.3964890241622925 1.0893446207046509
-11.671710014343262 0.38758131861686707 1.064870834350586
-11.733413696289062 0.3663565218448639 1.0065562725067139
-11.772422790527344 0.35130926966667175 0.9652143120765686
-11.782526016235352 0.3387618064880371 0.9307403564453125
-11.73579216003418 0.3268348276615143 0.8979712724685669
-11.63801097869873 0.3200007379055023 0.8791947960853577
-11.489911079406738 0.31471309065818787 0.8646670579910278
-11.297342300415039 0.3069716691970825 0.8433977365493774
-10.926554679870605 0.2991943955421448 0.8220298886299133
-10.63093090057373 0.29044583439826965 0.7979933619499207
-9.999170303344727 0.2793280780315399 0.7674475908279419
-9.040854454040527 0.31495988368988037 0.8653451800346373
-7.732285499572754 0.3365815281867981 0.9247501492500304
-6.6560983657836905 0.39490780234336853 1.0850002765655518
-5.436002254486084 0.41286069154739385 1.1343255043029785
-4.620168209075928 0.425957590341568 1.1703088283538818
-3.6895146369934078 0.4405950903892517 1.2105250358581543
-2.803755521774292 0.44866687059402466 1.2327021360397339
-1.5092381238937378 0.4681305587291718 1.2861781120300293