# vtk DataFile Version 4.0
 
ASCII
DATASET UNSTRUCTURED_GRID
POINTS 51 float
0.0029255072586238384 0.0013658050447702408 -0.007458887528628111
0.0024741466622799635 0.004315297119319439 -0.010359611362218857
0.0021053405944257975 0.006948334164917469 -0.013469337485730648
0.0016511689173057675 0.009431174956262112 -0.016621805727481842
0.001117104198783636 0.011775326915085316 -0.019805511459708214
0.0006340054678730667 0.014125741086900234 -0.022875500842928886
0.0003643686359282583 0.0167264211922884 -0.025587772950530052
0.0003691194870043546 0.019419807940721512 -0.028099883347749714
0.000572872522752732 0.021960429847240448 -0.030657306313514713
0.0008646587957628071 0.0245351679623127 -0.03307316079735756
0.0011637704446911812 0.027072466909885406 -0.035419002175331116
0.001422586850821972 0.029477851465344426 -0.03778930380940437
0.0016198125667870045 0.03180859237909317 -0.04012679681181908
0.0017542806454002857 0.034126363694667816 -0.04236980527639389
0.001837961026467383 0.036425650119781494 -0.04452384635806084
0.0018885409226641061 0.03866660222411156 -0.046628765761852264
0.001923572504892945 0.04081236198544502 -0.04872142896056175
0.0019564125686883926 0.04285447672009468 -0.05081028491258621
0.0019946848042309284 0.04481770843267441 -0.05287056788802147
0.002041437430307269 0.04673785716295242 -0.0548664815723896
0.00209671794436872 0.0486384816467762 -0.05677447095513344
0.002158778952434659 0.050520170480012894 -0.05859393626451493
0.002224987605586648 0.05236854031682014 -0.060339272022247314
0.002292493125423789 0.05416678637266159 -0.06202727556228637
0.0023586952593177557 0.05590232461690903 -0.06367053836584091
0.0024215481244027615 0.0575677827000618 -0.06527642160654068
0.0024797271471470594 0.05916067212820054 -0.06684742122888565
0.0025326928589493036 0.06068280711770058 -0.06838172674179077
0.0025806704070419073 0.06213957071304321 -0.06987395137548447
0.002624556189402938 0.06353902816772461 -0.07131602615118027
0.0026656491681933403 0.0648900642991066 -0.07269907742738724
0.0027052650693804026 0.066199891269207 -0.07401587814092636
0.002744461176916957 0.06747248023748398 -0.07526245713233948
0.002783895470201969 0.06870798766613007 -0.07643867284059525
0.0028237823862582445 0.06990283727645874 -0.07754809409379959
0.0028639202937483788 0.07105036079883575 -0.07859738916158676
0.0029037625063210726 0.07214168459177017 -0.0795954242348671
0.0029425176326185465 0.07316741347312927 -0.08055160939693451
0.002979256911203265 0.07412154972553253 -0.08147192001342773
0.0030130252707749605 0.07500484585762024 -0.08235563337802887
0.003042937722057104 0.07582505792379379 -0.08319497853517532
0.003068262478336692 0.07659530639648438 -0.08397682011127472
0.003088483354076743 0.0773317962884903 -0.08468497544527054
0.0031033395789563656 0.07805453985929489 -0.08529942482709885
0.0031128437258303165 0.07878823578357697 -0.08579546958208084
0.003117278451099992 0.07955809682607651 -0.08614788949489594
0.0031171750742942095 0.08038315922021866 -0.08633766323328018
0.003113273996859789 0.08127008378505707 -0.08635812252759933
0.0031064755748957396 0.0822092741727829 -0.08621885627508163
0.003097780514508486 0.08317404240369797 -0.08594655990600586
0.0030882256105542183 0.08412273228168488 -0.08558289706707001

CELLS 50 150
2 0 1
2 1 2
2 2 3
2 3 4
2 4 5
2 5 6
2 6 7
2 7 8
2 8 9
2 9 10
2 10 11
2 11 12
2 12 13
2 13 14
2 14 15
2 15 16
2 16 17
2 17 18
2 18 19
2 19 20
2 20 21
2 21 22
2 22 23
2 23 24
2 24 25
2 25 26
2 26 27
2 27 28
2 28 29
2 29 30
2 30 31
2 31 32
2 32 33
2 33 34
2 34 35
2 35 36
2 36 37
2 37 38
2 38 39
2 39 40
2 40 41
2 41 42
2 42 43
2 43 44
2 44 45
2 45 46
2 46 47
2 47 48
2 48 49
2 49 50

CELL_TYPES 50
4
4
4
4
4
4
4
4
4
4
4
4
4
4
4
4
4
4
4
4
4
4
4
4
4
4
4
4
4
4
4
4
4
4
4
4
4
4
4
4
4
4
4
4
4
4
4
4
4
4

POINT_DATA 51

SCALARS zone float
LOOKUP_TABLE default
1.0
1.0
1.0
1.0
1.0
1.0
1.0
1.0
1.0
1.0
1.0
1.0
1.0
1.0
1.0
1.0
1.0
1.0
1.0
1.0
1.0
1.0
1.0
1.0
1.0
1.0
1.0
1.0
1.0
1.0
1.0
1.0
1.0
1.0
1.0
1.0
1.0
1.0
1.0
1.0
1.0
1.0
1.0
1.0
1.0
1.0
1.0
1.0
1.0
1.0
1.0

VECTORS normals float
-0.00022568028362002224 0.001474746037274599 -0.001450361916795373
-0.00041008330299519 0.002791264560073614 -0.003005224745720625
-0.0004114889306947589 0.0025579389184713364 -0.0031310974154621363
-0.0004941182560287416 0.0024134963750839233 -0.003168086986988783
-0.00050858169561252 0.0023472830653190613 -0.003126847557723522
-0.00037636776687577367 0.002475546905770898 -0.0028911305125802755
-0.00013244299043435603 0.002647033194079995 -0.002612191252410412
0.00010425192886032163 0.0026170043274760246 -0.002534767147153616
0.00024776963982731104 0.0025576800107955933 -0.0024866387248039246
0.00029544899007305503 0.002556018764153123 -0.0023808469995856285
0.00027896405663341284 0.0024713415186852217 -0.0023580712731927633
0.00022802104649599642 0.0023680622689425945 -0.0023538977839052677
0.00016584688273724169 0.002324256580322981 -0.002290250500664115
0.00010907424439210443 0.0023085291031748056 -0.0021985250059515238
6.713013135595247e-5 0.002270120196044445 -0.002129480941221118
4.280570647097193e-5 0.002193356631323695 -0.0020987915340811014
3.3935823012143373e-5 0.0020939370151609182 -0.002090758178383112
3.555617877282202e-5 0.0020026732236146927 -0.0020745692308992147
4.251242717145942e-5 0.0019416897557675836 -0.0020280994940549135
5.1016584620811045e-5 0.0019103852100670338 -0.001951951184310019
5.867081563337706e-5 0.0018911564256995916 -0.001863726996816695
6.413481605704874e-5 0.0018650296842679381 -0.0017824007663875818
6.685699190711603e-5 0.0018233085284009576 -0.0017166690668091178
6.685387052129954e-5 0.0017668923828750849 -0.001665632240474224
6.452756497310475e-5 0.00170049793086946 -0.0016245737206190822
6.0515933000715456e-5 0.0016291743377223613 -0.0015884443419054153
5.557234908337704e-5 0.001557511743158102 -0.0015526539646089077
5.047163722338155e-5 0.0014894496416673064 -0.001513263094238937
4.5931661588838324e-5 0.0014281118055805564 -0.0014671480748802423
4.24893842136953e-5 0.001375245046801865 -0.0014125618617981672
4.035446181660518e-5 0.0013304291060194373 -0.0013499249471351504
3.940596798202023e-5 0.001291210181079805 -0.0012816907837986946
3.931512765120715e-5 0.0012540500611066818 -0.001211398048326373
3.966056101489812e-5 0.0012151768896728754 -0.0011428182478994131
4.001240085926838e-5 0.0011711848201230168 -0.0010793573455885053
3.999012187705375e-5 0.0011194245889782906 -0.001023664721287787
3.9298683986999094e-5 0.0010585265699774027 -0.0009771097684279084
3.774720971705392e-5 0.000989933148957789 -0.0009382502757944167
3.52538627339527e-5 0.0009187157847918569 -0.0009020146680995821
3.184030356351286e-5 0.0008517511305399239 -0.0008615264086984097
2.7618556487141177e-5 0.000795230851508677 -0.0008105936576612293
2.2772850570618175e-5 0.0007533718016929924 -0.0007449997938238084
1.7538583051646128e-5 0.0007296162657439709 -0.0006613023579120636
1.2180190424260218e-5 0.0007282175938598812 -0.0005552481161430478
6.969491550989915e-6 0.000751781219150871 -0.000424231548095122
2.165645810237038e-6 0.0007974635809659959 -0.0002710962435230613
-2.002310793614015e-6 0.0008559910347685217 -0.00010511586879147217
-5.3496896725846455e-6 0.0009130585240200162 5.940459232078865e-5
-7.746687515464146e-6 0.0009519813465885819 0.00020578033581841734
-9.125015822064597e-6 0.0009567257948219775 0.0003179777122568339
-4.777483354700962e-6 0.00047434234875254333 0.0001818315649870783

CELL_DATA 50

VECTORS liftinglineloading               float
0.007540777325630188 0.008966862224042416 0.010686290450394154
0.015070902183651924 0.023957863450050354 0.028551869094371796
0.044393640011548996 0.054404795169830315 0.06483710557222366
0.0010147338034585118 0.08392022550106049 0.10001222789287567
-0.2510530352592468 0.14476542174816132 0.17252472043037415
-0.8437595367431641 0.23608659207820892 0.2813570499420166
-1.5809746980667114 0.3819118142127991 0.45514476299285883
-2.4691460132598877 0.5203031897544861 0.6200731992721558
-3.517956972122193 0.6685187220573425 0.7967095971107483
-4.5040178298950195 0.7976118326187134 0.950556755065918
-5.287184238433838 0.880730628967285 1.0496138334274292
-6.214028358459473 0.9887966513633728 1.1784019470214844
-7.12671422958374 1.071739673614502 1.2772495746612549
-7.168899059295654 1.050046682357788 1.251396894454956
-7.477429866790772 1.0379430055618286 1.2369723320007324
-7.971842765808105 1.046788215637207 1.2475136518478394
-8.23141098022461 1.0313040018081665 1.2290602922439575
-8.655983924865723 1.0258115530014038 1.2225146293640137
-8.96529483795166 1.0185942649841309 1.2139133214950562
-9.07325553894043 1.0213935375213623 1.2172493934631348
-9.423643112182617 1.0146450996398926 1.2092069387435913
-9.663650512695312 0.9812737107276917 1.1694364547729492
-9.625012397766113 0.9423954486846925 1.123103141784668
-9.720881462097168 0.9215834736824035 1.0983004570007324
-9.82497787475586 0.8971021771430968 1.069124698638916
-10.001157760620117 0.8789038658142089 1.0474368333816528
-10.241759300231934 0.8589595556259155 1.0236681699752808
-10.466633796691895 0.8328546285629272 0.9925574660301207
-10.73640251159668 0.8058326840400696 0.9603539705276488
-11.040310859680176 0.7772992253303528 0.9263491630554198
-11.166024208068848 0.7432597279548645 0.8857824206352234
-11.729165077209473 0.7261889576911926 0.8654383420944213
-11.794052124023438 0.685704231262207 0.8171904683113098
-11.842462539672852 0.6572057604789734 0.7832273840904236
-11.864293098449707 0.6334238052368164 0.7548850774765015
-11.829893112182617 0.6109317541122437 0.728080153465271
-11.742748260498047 0.5981869697570801 0.7128915190696716
-11.602500915527344 0.5883658528327942 0.7011871337890625
-11.414591789245605 0.5739104151725769 0.6839597821235657
-11.039298057556152 0.5596593022346497 0.6669759750366211
-10.736992835998535 0.5435526371002197 0.6477807760238647
-10.09192180633545 0.5237807035446167 0.6242175102233887
-9.113731384277344 0.5912834405899048 0.7046641707420349
-7.789887428283692 0.6324962973594666 0.7537797689437866
-6.698145389556885 0.7428842186927795 0.8853349089622498
-5.580665111541748 0.7814568281173706 0.9313039779663087
-4.742298126220703 0.806370735168457 0.9609951972961427
-3.789606809616089 0.834130585193634 0.9940780997276307
-2.8812692165374756 0.8496453762054442 1.0125679969787598
-1.552573561668396 0.8863906264305116 1.0563591718673706