# vtk DataFile Version 4.0
 
ASCII
DATASET UNSTRUCTURED_GRID
POINTS 51 float
0.0029255072586238384 0.0007105228723958135 -0.007549542002379894
0.0024741466622799635 0.0033959764987230305 -0.010696292854845524
0.0021053405944257975 0.005747963674366474 -0.01402366906404495
0.0016511689173057675 0.007946600206196308 -0.01738053560256958
0.001117104198783636 0.010004354640841484 -0.0207564327865839
0.0006340054678730667 0.012078257277607918 -0.024019593372941017
0.0003643686359282583 0.014432650990784168 -0.02694820612668991
0.0003691194870043546 0.016896843910217285 -0.029685502871870995
0.000572872522752732 0.01920490339398384 -0.03245462477207184
0.0008646587957628071 0.02155928686261177 -0.03508568927645683
0.0011637704446911812 0.023882480338215828 -0.03764374181628227
0.001422586850821972 0.02607212401926517 -0.040214668959379196
0.0016198125667870045 0.02819027006626129 -0.042746402323246
0.0017542806454002857 0.030303731560707092 -0.045182883739471436
0.001837961026467383 0.032406531274318695 -0.04752912372350693
0.0018885409226641061 0.03445550054311752 -0.04982134699821472
0.001923572504892945 0.03641070798039436 -0.05209306254982948
0.0019564125686883926 0.038262996822595596 -0.05435194820165635
0.0019946848042309284 0.040039192885160446 -0.05657549947500229
0.002041437430307269 0.0417780764400959 -0.05873117223381996
0.00209671794436872 0.04350517690181732 -0.06079754978418351
0.002158778952434659 0.045221127569675446 -0.06277409195899963
0.002224987605586648 0.046910349279642105 -0.06467387825250626
0.002292493125423789 0.04855463281273842 -0.06651218980550766
0.0023586952593177557 0.050140347331762314 -0.06830045580863953
0.0024215481244027615 0.05165950581431389 -0.07004538923501968
0.0024797271471470594 0.053109411150217056 -0.0717492401599884
0.0025326928589493036 0.054492030292749405 -0.07341036945581436
0.0025806704070419073 0.05581319704651833 -0.07502388209104538
0.002624556189402938 0.057081643491983414 -0.07658243924379349
0.0026656491681933403 0.058306995779275894 -0.07807797193527222
0.0027052650693804026 0.05949706956744194 -0.07950392365455627
0.002744461176916957 0.06065617501735688 -0.08085667341947556
0.002783895470201969 0.06178446486592293 -0.08213609457015991
0.0028237823862582445 0.0628780722618103 -0.0833454355597496
0.0028639202937483788 0.06392977386713028 -0.08449074625968933
0.0029037625063210726 0.06492996960878372 -0.08558009564876556
0.0029425176326185465 0.06586845219135284 -0.08662204444408417
0.002979256911203265 0.06673875451087952 -0.0876220166683197
0.0030130252707749605 0.06754165887832642 -0.08857934921979904
0.003042937722057104 0.06828559935092926 -0.0894869789481163
0.003068262478336692 0.06898477673530579 -0.0903329849243164
0.003088483354076743 0.06965674459934235 -0.09110262989997864
0.0031033395789563656 0.07032318413257599 -0.0917777419090271
0.0031128437258303165 0.07101085036993027 -0.09233584254980087
0.003117278451099992 0.0717470720410347 -0.09275401383638382
0.0031171750742942095 0.07255245745182037 -0.09301497787237167
0.003113273996859789 0.07343421876430511 -0.09311265498399734
0.0031064755748957396 0.07438197731971741 -0.09305577725172043
0.003097780514508486 0.0753668025135994 -0.09286860376596451
0.0030882256105542183 0.07634357362985611 -0.09258900582790375

CELLS 50 150
2 0 1
2 1 2
2 2 3
2 3 4
2 4 5
2 5 6
2 6 7
2 7 8
2 8 9
2 9 10
2 10 11
2 11 12
2 12 13
2 13 14
2 14 15
2 15 16
2 16 17
2 17 18
2 18 19
2 19 20
2 20 21
2 21 22
2 22 23
2 23 24
2 24 25
2 25 26
2 26 27
2 27 28
2 28 29
2 29 30
2 30 31
2 31 32
2 32 33
2 33 34
2 34 35
2 35 36
2 36 37
2 37 38
2 38 39
2 39 40
2 40 41
2 41 42
2 42 43
2 43 44
2 44 45
2 45 46
2 46 47
2 47 48
2 48 49
2 49 50

CELL_TYPES 50
4
4
4
4
4
4
4
4
4
4
4
4
4
4
4
4
4
4
4
4
4
4
4
4
4
4
4
4
4
4
4
4
4
4
4
4
4
4
4
4
4
4
4
4
4
4
4
4
4
4

POINT_DATA 51

SCALARS zone float
LOOKUP_TABLE default
1.0
1.0
1.0
1.0
1.0
1.0
1.0
1.0
1.0
1.0
1.0
1.0
1.0
1.0
1.0
1.0
1.0
1.0
1.0
1.0
1.0
1.0
1.0
1.0
1.0
1.0
1.0
1.0
1.0
1.0
1.0
1.0
1.0
1.0
1.0
1.0
1.0
1.0
1.0
1.0
1.0
1.0
1.0
1.0
1.0
1.0
1.0
1.0
1.0
1.0
1.0

VECTORS normals float
-0.00022568028362002224 0.0013427268713712692 -0.0015733754262328148
-0.00041008330299519 0.0025187204591929913 -0.003237063763663173
-0.0004114889306947589 0.0022753120865672827 -0.003342121839523315
-0.0004941182560287416 0.002128195483237505 -0.00336638162843883
-0.00050858169561252 0.002065828302875161 -0.003319527953863144
-0.00037636776687577367 0.002214148174971342 -0.0030958871357142925
-0.00013244299043435603 0.00240929308347404 -0.0028329554479569197
0.00010425192886032163 0.00238612643443048 -0.002753208624199033
0.00024776963982731104 0.0023312224075198174 -0.0027000929694622755
0.00029544899007305503 0.002338788006454706 -0.0025945587549358606
0.00027896405663341284 0.002256417879834771 -0.002564489608630538
0.00022802104649599642 0.002153895329684019 -0.0025513307191431522
0.00016584688273724169 0.002115803537890315 -0.0024841076228767633
0.00010907424439210443 0.002108130371198058 -0.002391360467299819
6.713013135595247e-5 0.0020758851896971464 -0.002319231629371643
4.280570647097193e-5 0.002002088585868478 -0.002281968481838703
3.3935823012143373e-5 0.001903747208416462 -0.0022653008345514536
3.555617877282202e-5 0.0018142417538911104 -0.002241219161078334
4.251242717145942e-5 0.0017575405072420835 -0.0021896115504205227
5.1016584620811045e-5 0.0017329918919131158 -0.0021110244560986757
5.867081563337706e-5 0.0017215254483744502 -0.0020214600954204798
6.413481605704874e-5 0.0017025861889123914 -0.0019381662132218478
6.685699190711603e-5 0.0016667527379468081 -0.001869048341177404
6.685387052129954e-5 0.0016149993753060699 -0.0018132887780666353
6.452756497310475e-5 0.0015524360351264477 -0.0017665998311713338
6.0515933000715456e-5 0.0014845328405499458 -0.001724391710013151
5.557234908337704e-5 0.0014162622392177582 -0.0016824917402118444
5.047163722338155e-5 0.0013518923660740256 -0.0016373187536373737
4.5931661588838324e-5 0.0012948070652782917 -0.0015860332641750574
4.24893842136953e-5 0.0012468989007174969 -0.0015270471340045333
4.035446181660518e-5 0.0012077126884832978 -0.001460742554627359
3.940596798202023e-5 0.0011745900847017765 -0.0013893499271944165
3.931512765120715e-5 0.0011436977656558156 -0.0013160859234631062
3.966056101489812e-5 0.0011109496699646115 -0.0012443790910765529
4.001240085926838e-5 0.0010726558975875378 -0.0011773256119340658
3.999012187705375e-5 0.0010259465780109167 -0.001117333653382957
3.9298683986999094e-5 0.0009693378815427421 -0.0010656481608748436
3.774720971705392e-5 0.0009043922182172537 -0.0010209582978859544
3.52538627339527e-5 0.000836604041978717 -0.0009786535520106554
3.184030356351286e-5 0.00077342294389382 -0.0009324830025434494
2.7618556487141177e-5 0.0007215568912215531 -0.000876818026881665
2.2772850570618175e-5 0.000685573962982744 -0.0008078255341388286
1.7538583051646128e-5 0.0006692035822197795 -0.0007223761640489101
1.2180190424260218e-5 0.0006770534673705697 -0.0006166035891510546
6.969491550989915e-6 0.0007119462243281305 -0.0004881392815150321
2.165645810237038e-6 0.0007708013872615993 -0.00033956815605051816
-2.002310793614015e-6 0.0008435722556896508 -0.00017932039918377995
-5.3496896725846455e-6 0.0009147615055553614 -2.0399753339006566e-5
-7.746687515464146e-6 0.0009662936790846288 0.00012202663492644207
-9.125015822064597e-6 0.0009807987371459603 0.00023338357277680186
-4.777483354700962e-6 0.0004883849760517478 0.00013979797950014472

CELL_DATA 50

VECTORS liftinglineloading               float
0.006958951707929372 0.009190496988594532 0.009190496988594532
0.01583019085228443 0.026993896812200546 0.026993896812200546
0.04391055554151535 0.05996166169643402 0.05996166169643402
-0.000883626751601696 0.09263785928487778 0.09263785928487778
-0.25562387704849243 0.16009019315242767 0.16009019315242767
-0.8497979640960694 0.26071831583976746 0.26071831583976746
-1.5894750356674194 0.4211429357528686 0.4211429357528686
-2.478647470474243 0.573398768901825 0.573398768901825
-3.5301690101623535 0.7367294430732727 0.7367294430732727
-4.517882823944092 0.8788642883300781 0.8788642883300781
-5.302322864532471 0.970379114151001 0.970379114151001
-6.229321002960205 1.0892819166183472 1.0892819166183472
-7.141227722167968 1.1803879737854004 1.1803879737854004
-7.181149005889893 1.1562265157699585 1.1562265157699585
-7.490190029144287 1.1429393291473389 1.1429393291473389
-7.983858585357666 1.1525503396987915 1.1525503396987915
-8.242892265319824 1.1353733539581299 1.1353733539581299
-8.665936470031738 1.1291265487670898 1.1291265487670898
-8.974468231201172 1.1211113929748535 1.1211113929748535
-9.080255508422852 1.1241313219070435 1.1241313219070435
-9.428743362426758 1.1165993213653564 1.1165993213653564
-9.666269302368164 1.0797953605651855 1.0797953605651855
-9.624588012695312 1.0369383096694946 1.0369383096694946
-9.71725082397461 1.0139894485473633 1.0139894485473633
-9.818395614624023 0.9870631694793701 0.9870631694793701
-9.991698265075684 0.9670780897140502 0.9670780897140502
-10.22891902923584 0.9451983571052551 0.9451983571052551
-10.448928833007812 0.9164974689483644 0.9164974689483644
-10.714509963989258 0.8868507742881774 0.8868507742881774
-11.014720916748047 0.8555987477302551 0.8555987477302551
-11.139424324035645 0.8183141946792603 0.8183141946792603
-11.703014373779297 0.7997443675994873 0.7997443675994873
-11.768389701843262 0.7554233074188232 0.7554233074188232
-11.817415237426758 0.7240187525749207 0.7240187525749207
-11.839996337890625 0.6977717280387878 0.6977717280387878
-11.806175231933594 0.672921895980835 0.672921895980835
-11.719557762145996 0.6587822437286377 0.6587822437286377
-11.579723358154297 0.6478895545005798 0.6478895545005798
-11.39202880859375 0.6319311261177063 0.6319311261177063
-11.017778396606445 0.6161640882492065 0.6161640882492065
-10.716058731079102 0.5983801484107971 0.5983801484107971
-10.072145462036133 0.5764011144638062 0.5764011144638062
-9.096080780029297 0.6505324840545654 0.6505324840545654
-7.773281574249268 0.6956998109817505 0.6956998109817505
-6.68281364440918 0.8168044686317443 0.8168044686317443
-5.566455364227295 0.859051287174225 0.859051287174225
-4.729073524475098 0.8863618969917296 0.8863618969917296
-3.7776575088500977 0.9167979359626769 0.9167979359626769
-2.8711094856262207 0.9337446093559265 0.9337446093559265
-1.546372413635254 0.9740641117095946 0.9740641117095946