# vtk DataFile Version 4.0
 
ASCII
DATASET UNSTRUCTURED_GRID
POINTS 51 float
0.0029719590675085783 -0.007481871638447046 0.0012798273237422109
0.002608868759125471 -0.011228663846850395 -0.0004734820104204118
0.0023370522540062666 -0.015065839514136314 -0.0018531766254454851
0.0019680906552821398 -0.018890490755438805 -0.003079944523051381
0.0014949451433494687 -0.02269323542714119 -0.004173907916992903
0.001041901996359229 -0.02638603374361992 -0.005323862656950951
0.0007715190295130014 -0.02982303500175476 -0.006842589937150478
0.0007508308626711369 -0.03309965506196022 -0.008525473065674305
0.0009129723184742035 -0.03636431321501732 -0.01005422044545412
0.0011547972681000829 -0.039506807923316956 -0.011665166355669498
0.0014014894841238856 -0.042570918798446655 -0.01326441764831543
0.0016095859464257958 -0.04561372473835945 -0.014729574322700499
0.0017607304034754632 -0.048601310700178146 -0.01613336242735386
0.0018556131981313229 -0.051496919244527824 -0.017554614692926407
0.0019071486312896013 -0.054303798824548714 -0.018986361101269722
0.0019331572111696005 -0.05704561993479729 -0.020377833396196365
0.0019505200907588003 -0.0597442165017128 -0.021682221442461014
0.0019713775254786015 -0.06240442022681236 -0.022889157757163048
0.002001940505579114 -0.06501123309135437 -0.02403079904615879
0.0020439913496375084 -0.06754311919212341 -0.025153350085020065
0.0020965919829905033 -0.06998587399721146 -0.02628723904490471
0.002157271606847644 -0.07233908772468567 -0.027433374896645546
0.0022228893358260393 -0.07461130619049072 -0.02857341803610325
0.0022902570199221373 -0.07681254297494888 -0.029685897752642635
0.0023565629962831736 -0.07895030081272125 -0.03075471706688404
0.0024196337908506393 -0.08102898299694061 -0.03177044913172722
0.002478071954101324 -0.08305006474256516 -0.032729919999837875
0.002531298203393817 -0.08501245826482773 -0.0336354523897171
0.0025795181281864643 -0.08691294491291046 -0.034493960440158844
0.0026236188132315874 -0.08874671161174774 -0.03531577065587044
0.002664896659553051 -0.09050844609737396 -0.03611226752400398
0.002704667393118143 -0.09219382703304291 -0.03689270839095116
0.0027439913246780634 -0.09380049258470535 -0.03766218200325966
0.0027835292275995016 -0.09532834589481354 -0.03842087462544441
0.0028234992641955614 -0.09677953273057938 -0.039164211601018906
0.0028637030627578497 -0.09815802425146103 -0.03988363966345787
0.0029035976622253656 -0.0994691252708435 -0.040567796677351
0.0029423937667161226 -0.10071846842765808 -0.04120462387800217
0.0029791651759296656 -0.10190962255001068 -0.04178645461797714
0.0030129586812108755 -0.10304214060306549 -0.04231422394514084
0.003042890690267086 -0.10411139577627182 -0.04279789701104164
0.003068230813369155 -0.10510953515768051 -0.04325428605079651
0.0030884635634720325 -0.10602687299251555 -0.043704159557819366
0.0031033288687467575 -0.10685146600008011 -0.04417315497994423
0.003112840000540018 -0.10756853222846985 -0.04469294473528862
0.0031172798480838537 -0.1081630066037178 -0.045295849442481995
0.0031171797309070826 -0.10862352699041367 -0.04600624367594719
0.0031132809817790985 -0.10894609242677689 -0.04683268070220947
0.0031064841896295547 -0.10913644731044769 -0.04776286706328392
0.0030977895949035883 -0.1092105507850647 -0.04876258224248886
0.003088234690949321 -0.10919328778982162 -0.04977843165397644

CELLS 50 150
2 0 1
2 1 2
2 2 3
2 3 4
2 4 5
2 5 6
2 6 7
2 7 8
2 8 9
2 9 10
2 10 11
2 11 12
2 12 13
2 13 14
2 14 15
2 15 16
2 16 17
2 17 18
2 18 19
2 19 20
2 20 21
2 21 22
2 22 23
2 23 24
2 24 25
2 25 26
2 26 27
2 27 28
2 28 29
2 29 30
2 30 31
2 31 32
2 32 33
2 33 34
2 34 35
2 35 36
2 36 37
2 37 38
2 38 39
2 39 40
2 40 41
2 41 42
2 42 43
2 43 44
2 44 45
2 45 46
2 46 47
2 47 48
2 48 49
2 49 50

CELL_TYPES 50
4
4
4
4
4
4
4
4
4
4
4
4
4
4
4
4
4
4
4
4
4
4
4
4
4
4
4
4
4
4
4
4
4
4
4
4
4
4
4
4
4
4
4
4
4
4
4
4
4
4

POINT_DATA 51

SCALARS zone float
LOOKUP_TABLE default
1.0
1.0
1.0
1.0
1.0
1.0
1.0
1.0
1.0
1.0
1.0
1.0
1.0
1.0
1.0
1.0
1.0
1.0
1.0
1.0
1.0
1.0
1.0
1.0
1.0
1.0
1.0
1.0
1.0
1.0
1.0
1.0
1.0
1.0
1.0
1.0
1.0
1.0
1.0
1.0
1.0
1.0
1.0
1.0
1.0
1.0
1.0
1.0
1.0
1.0
1.0

VECTORS normals float
-0.00018154516874346882 -0.0018733959877863526 -0.0008766546961851418
-0.00031745340675115585 -0.003791983937844634 -0.001566501916386187
-0.0003203890810254961 -0.0038309136871248484 -0.001303231343626976
-0.00042105361353605986 -0.00381369749084115 -0.0011603656457737088
-0.0004630943294614554 -0.0037477714940905567 -0.0011219590669497848
-0.00036171305691823363 -0.0035649004857987165 -0.0013343411264941096
-0.0001455355522921309 -0.0033568111248314385 -0.0016008049715310337
7.072663720464334e-5 -0.0032706393394619226 -0.0016058152541518214
0.00020198317361064258 -0.003203576197847724 -0.0015698467614129186
0.00024425858282484114 -0.0031033025588840246 -0.0016050984850153327
0.0002273943391628563 -0.003053458407521248 -0.001532203983515501
0.00017962048877961934 -0.003015195718035102 -0.001434472855180502
0.0001230136549565941 -0.0029415972530841827 -0.0014125198358669877
7.320909935515374e-5 -0.0028512433636933565 -0.0014264987548813224
3.8772002881160006e-5 -0.0027743505779653788 -0.0014116100501269102
2.1685751562472433e-5 -0.00272020953707397 -0.0013479305198416114
1.9110158973489888e-5 -0.0026793996803462505 -0.001255661714822054
2.5710261979838833e-5 -0.00263350922614336 -0.001174288336187601
3.630685023381375e-5 -0.0025693480856716633 -0.0011320965131744742
4.732568413601257e-5 -0.002487320452928543 -0.001128220115788281
5.6640183174749836e-5 -0.002397986361756921 -0.001140011940151453
6.314866186585277e-5 -0.002312715630978346 -0.0011430898448452353
6.649269198533148e-5 -0.0022367271594703197 -0.00112626189365983
6.683685205643997e-5 -0.0021694982424378395 -0.0010906491661444306
6.468839274020866e-5 -0.0021082195453345776 -0.0010422762716189027
6.0754482547054074e-5 -0.0020498791709542274 -0.0009876018157228827
5.583223173744046e-5 -0.0019917376339435577 -0.0009325012797489762
5.072306885267608e-5 -0.001931442064233124 -0.0008820196380838752
4.616025398718193e-5 -0.0018671270227059722 -0.0008401580853387713
4.268924021744169e-5 -0.001797748846001923 -0.0008091543568298221
4.052436997881159e-5 -0.0017235589912161233 -0.0007884692749939859
3.9547361666336656e-5 -0.00164602417498827 -0.0007749575306661427
3.943082629120909e-5 -0.0015672593144699931 -0.0007640838739462197
3.97539661207702e-5 -0.0014895184431225061 -0.0007510138675570488
4.0087012166623026e-5 -0.0014148374320939183 -0.0007313822279684246
4.004923903266899e-5 -0.0013447994133457541 -0.0007017935859039426
3.934526102966629e-5 -0.0012802229030057788 -0.0006604925729334354
3.778377140406519e-5 -0.0012202460784465075 -0.0006093276897445321
3.528250090312213e-5 -0.0011618374846875668 -0.0005547995679080486
3.186270623700693e-5 -0.0011008874280378222 -0.0005057218950241804
2.7636049708235078e-5 -0.0010336949490010738 -0.00047003081999719143
2.2786460249335505e-5 -0.0009577400633133948 -0.0004531310114543885
1.7549085896462202e-5 -0.0008709651883691549 -0.0004594346683006733
1.21881839731941e-5 -0.0007708282792009413 -0.0004943933454342186
6.97543964633951e-6 -0.000655772106256336 -0.00056134641636163
2.169919071093318e-6 -0.0005274961586110294 -0.0006566493539139628
-1.999401547436719e-6 -0.0003915431152563542 -0.0007684159209020436
-5.347871592675801e-6 -0.00025646263384260237 -0.0008783113444224
-7.745714356133249e-6 -0.00013222676352597773 -0.0009649503626860677
-9.124661119130906e-6 -2.8418347937986255e-5 -0.0010077825281769037
-4.777432877745014e-6 8.631060154584702e-6 -0.0005079259281046689

CELL_DATA 50

VECTORS liftinglineloading               float
0.11491944640874864 0.0558868944644928 -0.09679894149303436
0.1699381023645401 0.09426937997341156 -0.16327935457229614
-0.05261100083589554 0.018224958330392838 -0.0315665528178215
0.13661707937717438 0.04083884879946709 -0.07073496282100677
0.043934475630521774 0.0728956088423729 -0.12625889480113983
-0.6543084383010864 0.19285060465335846 -0.3340270519256592
-1.6668320894241333 0.3762439787387848 -0.6516736745834351
-2.8606789112091064 0.5360700488090515 -0.9285005331039429
-4.259377956390381 0.7000942230224609 -1.2125986814498901
-5.496551990509033 0.8256781697273253 -1.4301165342330933
-6.416900634765625 0.8949608206748961 -1.5501176118850708
-7.216245174407958 0.9564844965934752 -1.6566797494888308
-7.80625343322754 0.9813567996025087 -1.699759840965271
-7.458210468292237 0.9116135835647584 -1.5789610147476196
-7.406131267547607 0.8607789278030394 -1.4909127950668335
-7.558321952819824 0.833979308605194 -1.444494605064392
-7.5187177658081055 0.798643946647644 -1.3832918405532837
-7.823087215423583 0.7892362475395203 -1.366997241973877
-7.952947616577148 0.774312436580658 -1.3411484956741333
-8.13619613647461 0.770026683807373 -1.3337253332138062
-8.466885566711426 0.7671704888343811 -1.3287782669067383
-8.887728691101074 0.746354877948761 -1.2927244901657104
-9.0310640335083 0.7216800451278687 -1.2499865293502808
-9.313536643981934 0.7100775241851807 -1.2298903465270996
-9.59004020690918 0.6947049498558044 -1.2032643556594849
-9.900727272033691 0.6821108460426331 -1.181450605392456
-10.245535850524902 0.6670175790786743 -1.1553083658218384
-10.5614595413208 0.6465938687324524 -1.1199333667755127
-10.910017013549805 0.6251377463340759 -1.0827703475952148
-11.275378227233887 0.6020952463150024 -1.0428595542907715
-11.45873737335205 0.5740743279457092 -0.9943258762359619
-12.020878791809082 0.5593631267547607 -0.9688453078269958
-12.073565483093262 0.5266443490982056 -0.9121748208999634
-12.104267120361328 0.5051642656326294 -0.8749701380729674
-12.106725692749023 0.48752743005752563 -0.8444222807884217
-12.0566987991333 0.4709176421165466 -0.8156532645225525
-11.958616256713867 0.461828351020813 -0.7999101281166077
-11.814033508300781 0.4547093510627746 -0.7875796556472778
-11.629964828491211 0.4436828792095185 -0.7684813141822815
-11.257801055908203 0.4329452514648437 -0.7498831748962402
-10.976534843444824 0.42075386643409723 -0.7287670969963074
-10.334193229675293 0.40687286853790283 -0.7047244906425476
-9.349563598632812 0.4604160785675049 -0.7974640727043152
-8.032001495361328 0.49400484561920166 -0.8556414842605591
-6.943563461303712 0.5832645297050476 -1.0102437734603882
-5.885365009307861 0.6169367432594299 -1.068565845489502
-5.026377201080322 0.6373373866081238 -1.1039007902145386
-4.046355724334717 0.6599212288856506 -1.143017053604126
-3.099790573120117 0.6730805039405823 -1.1658096313476562
-1.6866658926010132 0.7024688720703125 -1.2167117595672607