# vtk DataFile Version 4.0
 
ASCII
DATASET UNSTRUCTURED_GRID
POINTS 51 float
0.0029719590675085783 -0.005789658986032009 -0.004908788949251175
0.002608868759125471 -0.006854937411844731 -0.008906004019081593
0.0023370522540062666 -0.008264519274234772 -0.012732301838696003
0.0019680906552821398 -0.009783199056982994 -0.016450705006718636
0.0014949451433494687 -0.011389531195163727 -0.020066961646080017
0.001041901996359229 -0.012882299721240996 -0.023634986951947212
0.0007715190295130014 -0.013928149826824665 -0.02724410220980644
0.0007508308626711369 -0.014745157212018965 -0.030835876241326332
0.0009129723184742035 -0.015672551468014717 -0.03431940823793411
0.0011547972681000829 -0.016458451747894287 -0.037762194871902466
0.0014014894841238856 -0.01720292679965496 -0.041137419641017914
0.0016095859464257958 -0.018036428838968277 -0.04441012814640999
0.0017607304034754632 -0.01888144761323929 -0.047601088881492615
0.0018556131981313229 -0.019653966650366783 -0.0507328175008297
0.0019071486312896013 -0.020361412316560745 -0.05380332097411156
0.0019331572111696005 -0.021057892590761185 -0.056798100471496575
0.0019505200907588003 -0.021793296560645103 -0.05970378965139389
0.0019713775254786015 -0.02257867529988289 -0.0625174269080162
0.002001940505579114 -0.02337975613772869 -0.06524819135665894
0.0020439913496375084 -0.024147294461727142 -0.06790929287672043
0.0020965919829905033 -0.02484886161983013 -0.0705094039440155
0.002157271606847644 -0.02548348531126976 -0.07304879277944565
0.0022228893358260393 -0.026070715859532356 -0.07552221417427063
0.0022902570199221373 -0.02663343399763107 -0.07792355120182037
0.0023565629962831736 -0.02718879655003548 -0.08024819195270538
0.0024196337908506393 -0.027746848762035366 -0.08249345421791077
0.002478071954101324 -0.028310976922512058 -0.0846584290266037
0.002531298203393817 -0.028878701850771907 -0.08674377202987671
0.0025795181281864643 -0.029442658647894863 -0.08875147253274918
0.0026236188132315874 -0.02999183721840382 -0.09068446606397629
0.002664896659553051 -0.030514104291796684 -0.0925460085272789
0.002704667393118143 -0.03099959716200829 -0.09433874487876892
0.0027439913246780634 -0.03144288808107376 -0.09606412798166275
0.0027835292275995016 -0.03184378147125244 -0.09772221744060516
0.0028234992641955614 -0.03220715746283531 -0.09931168705224991
0.0028637030627578497 -0.03254212066531181 -0.10083011537790298
0.0029035976622253656 -0.032860785722732544 -0.10227425396442413
0.0029423937667161226 -0.033176008611917496 -0.10364064574241638
0.0029791651759296656 -0.033495958894491196 -0.10492711514234541
0.0030129586812108755 -0.033819638192653656 -0.10613392293453217
0.003042890690267086 -0.03413642197847366 -0.10726391524076462
0.003068230813369155 -0.03442839905619621 -0.1083218902349472
0.0030884635634720325 -0.034673433750867844 -0.10931379348039627
0.0031033288687467575 -0.03484419733285904 -0.11024692654609679
0.003112840000540018 -0.034906934946775436 -0.11113034933805464
0.0031172798480838537 -0.03482721000909805 -0.11197327822446823
0.0031171797309070826 -0.03457902744412422 -0.11278269439935686
0.0031132809817790985 -0.0341532863676548 -0.11356101930141448
0.0031064841896295547 -0.033563077449798584 -0.11430475115776063
0.0030977895949035883 -0.03284488245844841 -0.11500411480665208
0.003088234690949321 -0.03205559775233269 -0.11564386636018753

CELLS 50 150
2 0 1
2 1 2
2 2 3
2 3 4
2 4 5
2 5 6
2 6 7
2 7 8
2 8 9
2 9 10
2 10 11
2 11 12
2 12 13
2 13 14
2 14 15
2 15 16
2 16 17
2 17 18
2 18 19
2 19 20
2 20 21
2 21 22
2 22 23
2 23 24
2 24 25
2 25 26
2 26 27
2 27 28
2 28 29
2 29 30
2 30 31
2 31 32
2 32 33
2 33 34
2 34 35
2 35 36
2 36 37
2 37 38
2 38 39
2 39 40
2 40 41
2 41 42
2 42 43
2 43 44
2 44 45
2 45 46
2 46 47
2 47 48
2 48 49
2 49 50

CELL_TYPES 50
4
4
4
4
4
4
4
4
4
4
4
4
4
4
4
4
4
4
4
4
4
4
4
4
4
4
4
4
4
4
4
4
4
4
4
4
4
4
4
4
4
4
4
4
4
4
4
4
4
4

POINT_DATA 51

SCALARS zone float
LOOKUP_TABLE default
1.0
1.0
1.0
1.0
1.0
1.0
1.0
1.0
1.0
1.0
1.0
1.0
1.0
1.0
1.0
1.0
1.0
1.0
1.0
1.0
1.0
1.0
1.0
1.0
1.0
1.0
1.0
1.0
1.0
1.0
1.0
1.0
1.0
1.0
1.0
1.0
1.0
1.0
1.0
1.0
1.0
1.0
1.0
1.0
1.0
1.0
1.0
1.0
1.0
1.0
1.0

VECTORS normals float
-0.00018154516874346882 -0.0005326392711140215 -0.001998607302084565
-0.00031745340675115585 -0.0012374301441013813 -0.003911756444722414
-0.0003203890810254961 -0.00146413070615381 -0.0037723509594798092
-0.00042105361353605986 -0.0015625059604644775 -0.0036673303693532944
-0.0004630943294614554 -0.0015495504485443234 -0.0035921407397836442
-0.00036171305691823363 -0.0012693093158304691 -0.0035885702818632126
-0.0001455355522921309 -0.0009314288035966456 -0.003600443946197629
7.072663720464334e-5 -0.0008722005877643824 -0.0035376532468944784
0.00020198317361064258 -0.000856646744068712 -0.003463159780949354
0.00024425858282484114 -0.0007651876658201218 -0.0034090052358806138
0.0002273943391628563 -0.0007889888947829604 -0.003323966637253761
0.00017962048877961934 -0.0008392605814151467 -0.0032318353187292814
0.0001230136549565941 -0.0008087692549452187 -0.0031613444443792105
7.320909935515374e-5 -0.0007399824098683894 -0.003101114882156253
3.8772002881160006e-5 -0.0007019622134976089 -0.003032641252502799
2.1685751562472433e-5 -0.00071594218024984 -0.0029502343386411667
1.9110158973489888e-5 -0.0007603921694681048 -0.0028596629854291677
2.5710261979838833e-5 -0.0007932301377877593 -0.002772203180938959
3.630685023381375e-5 -0.0007843088824301958 -0.0026959325186908245
4.732568413601257e-5 -0.0007345519843511283 -0.0026306037325412035
5.6640183174749836e-5 -0.000668096065055579 -0.002569749718531966
6.314866186585277e-5 -0.0006109272944740951 -0.0025064069777727127
6.649269198533148e-5 -0.0005749738775193691 -0.00243737967684865
6.683685205643997e-5 -0.0005590408691205084 -0.002362987957894802
6.468839274020866e-5 -0.0005567073822021484 -0.002284951973706484
6.0754482547054074e-5 -0.0005610900116153061 -0.0022051166743040085
5.583223173744046e-5 -0.0005659267771989107 -0.002125159837305546
5.072306885267608e-5 -0.0005658408044837415 -0.0020465217530727386
4.616025398718193e-5 -0.0005565676838159561 -0.001970345387235284
4.268924021744169e-5 -0.000535722472704947 -0.0018972698599100113
4.052436997881159e-5 -0.0005038798553869128 -0.0018271410372108219
3.9547361666336656e-5 -0.0004643920401576906 -0.0017590607749298215
3.943082629120909e-5 -0.0004220926493871957 -0.001691733836196363
3.97539661207702e-5 -0.0003821339923888445 -0.001623779768124223
4.0087012166623026e-5 -0.0003491686366032809 -0.0015539517626166344
4.004923903266899e-5 -0.00032681532320566475 -0.001481280312873423
3.934526102966629e-5 -0.000316944788210094 -0.0014052641345188022
3.778377140406519e-5 -0.0003175869642291218 -0.0013264310546219349
3.528250090312213e-5 -0.0003218136553186923 -0.0012466374319046736
3.186270623700693e-5 -0.00032023133826442063 -0.0011684003984555602
2.7636049708235078e-5 -0.0003043818287551403 -0.0010939863277599216
2.2786460249335505e-5 -0.00026850495487451553 -0.0010249384213238955
1.7549085896462202e-5 -0.00020789825066458437 -0.0009625169332139194
1.21881839731941e-5 -0.00011675158020807432 -0.0009082786273211241
6.97543964633951e-6 8.494114808854647e-6 -0.0008631770615465939
2.169919071093318e-6 0.00016395458078477532 -0.0008261715993285179
-1.999401547436719e-6 0.00033696170430630445 -0.0007938676862977444
-5.347871592675801e-6 0.0005079745315015316 -0.0007610294269397855
-7.745714356133249e-6 0.0006542011396959424 -0.0007215497316792607
-9.124661119130906e-6 0.0007537392666563392 -0.0006695598713122308
-4.777432877745014e-6 0.00039464174187742174 -0.00031987670809030533

CELL_DATA 50

VECTORS liftinglineloading               float
0.056241780519485474 0.0687297061085701 -0.012118901126086712
0.0074662091210484505 0.027505476027727127 -0.004849957302212715
0.05040824040770531 0.060932304710149765 -0.010744009166955948
0.08096751570701599 0.1123083159327507 -0.019802987575531006
-0.23179975152015686 0.2423185110092163 -0.04272729158401489
-1.0350351333618164 0.4851739704608917 -0.0855492576956749
-2.0850038528442383 0.790659487247467 -0.13941459357738495
-3.2367024421691895 1.078804612159729 -0.1902223527431488
-4.563180923461914 1.390337347984314 -0.2451539784669876
-5.849468231201172 1.642858624458313 -0.2896803021430969
-6.867091655731201 1.8021087646484375 -0.3177604079246521
-7.70436668395996 1.9218568801879883 -0.3388752043247223
-8.284863471984863 1.9699336290359497 -0.34735244512557983
-7.997824192047119 1.8441307544708252 -0.32517001032829285
-8.073830604553223 1.7654330730438232 -0.31129348278045654
-8.275910377502441 1.7156606912612915 -0.30251726508140564
-8.305541038513184 1.6434192657470703 -0.2897791564464569
-8.583704948425293 1.6081223487854004 -0.28355535864830017
-8.787378311157227 1.5792319774627686 -0.278461217880249
-9.109987258911133 1.5832284688949585 -0.2791658937931061
-9.515168190002441 1.5698871612548828 -0.27681347727775574
-9.834603309631348 1.5173635482788086 -0.26755213737487793
-9.886462211608887 1.457581877708435 -0.2570109963417053
-10.07480239868164 1.42509126663208 -0.2512820363044739
-10.255757331848145 1.3846443891525269 -0.24415016174316406
-10.500998497009277 1.3530734777450562 -0.23858335614204407
-10.819511413574219 1.3178472518920898 -0.23237201571464536
-11.173905372619629 1.2746602296829224 -0.22475700080394745
-11.537109375 1.2279466390609741 -0.21652013063430786
-11.910425186157227 1.1772561073303223 -0.2075820118188858
-12.02889633178711 1.1186915636062622 -0.19725552201271057
-12.543145179748535 1.084969162940979 -0.1913093477487564
-12.56513500213623 1.0160465240478516 -0.17915642261505127
-12.571544647216797 0.9753063321113585 -0.17197281122207642
-12.552544593811035 0.9425898194313049 -0.16620402038097382
-12.485916137695312 0.912218451499939 -0.1608487367630005
-12.372795104980469 0.8968194723129272 -0.15813347697257996
-12.220009803771973 0.8841369152069093 -0.15589720010757446
-12.010893821716309 0.8640379905700684 -0.1523532122373581
-11.5996732711792 0.8452380895614624 -0.14903828501701355
-11.275554656982422 0.8226454257965088 -0.14505457878112793
-10.595513343811035 0.7995301485061646 -0.14097873866558075
-9.56325626373291 0.9070355892181395 -0.1599348485469818
-8.212363243103027 0.9752767086029053 -0.17196759581565857
-7.089690685272217 1.1540838479995728 -0.20349612832069397
-5.945615291595459 1.2183401584625244 -0.21482624113559723
-5.084294319152832 1.2588732242584229 -0.22197331488132474
-4.1020684242248535 1.3037986755371094 -0.2298948913812637
-3.152327299118042 1.3303388357162476 -0.23457463085651398
-1.7237383127212522 1.3889364004135132 -0.2449069619178772