# vtk DataFile Version 4.0
 
ASCII
DATASET UNSTRUCTURED_GRID
POINTS 51 float
0.0029719590675085783 -0.007341856602579355 0.0019270452903583646
0.002608868759125471 -0.011227201670408249 0.0005069622420705855
0.0023370522540062666 -0.015170024707913399 -0.0005330502754077315
0.0019680906552821398 -0.019087040796875954 -0.001421809778548777
0.0014949451433494687 -0.022970659658312798 -0.002180179115384817
0.001041901996359229 -0.02674963138997555 -0.003003909485414624
0.0007715190295130014 -0.030305922031402588 -0.004217302892357111
0.0007508308626711369 -0.03371674567461014 -0.005608205683529377
0.0009129723184742035 -0.037102218717336655 -0.006846602540463209
0.0011547972681000829 -0.04037315770983696 -0.008177531883120537
0.0014014894841238856 -0.043564993888139725 -0.009503642097115517
0.0016095859464257958 -0.04672391712665558 -0.010698026046156883
0.0017607304034754632 -0.04982248321175575 -0.011836087331175804
0.0018556131981313229 -0.05283094197511673 -0.012999560683965683
0.0019071486312896013 -0.05575192719697952 -0.014181223697960378
0.0019331572111696005 -0.058604590594768524 -0.015328437089920044
0.0019505200907588003 -0.06140660122036933 -0.01639266312122345
0.0019713775254786015 -0.06416187435388565 -0.017363153398036957
0.002001940505579114 -0.06685826927423477 -0.01827325113117695
0.0020439913496375084 -0.0694783553481102 -0.019170863553881645
0.0020965919829905033 -0.07201064378023148 -0.020087536424398422
0.002157271606847644 -0.07445479184389114 -0.02102421596646309
0.0022228893358260393 -0.07681772857904434 -0.021961884573101997
0.0022902570199221373 -0.07910754531621933 -0.02287827990949154
0.0023565629962831736 -0.0813303217291832 -0.023756712675094604
0.0024196337908506393 -0.08348961919546127 -0.024587413296103477
0.002478071954101324 -0.08558662980794907 -0.025367083027958873
0.002531298203393817 -0.08762048184871674 -0.02609813585877419
0.0025795181281864643 -0.08958856016397476 -0.02678773738443851
0.0026236188132315874 -0.09148697555065155 -0.027446595951914787
0.002664896659553051 -0.09331142157316208 -0.028086518868803974
0.002704667393118143 -0.09505841881036758 -0.028717098757624626
0.0027439913246780634 -0.09672603011131287 -0.0293436162173748
0.0027835292275995016 -0.09831419587135315 -0.029966259375214577
0.0028234992641955614 -0.09982463717460632 -0.030580287799239162
0.0028637030627578497 -0.10126058757305145 -0.031176835298538208
0.0029035976622253656 -0.10262633115053175 -0.03174411877989769
0.0029423937667161226 -0.1039264276623726 -0.032269638031721115
0.0029791651759296656 -0.10516375303268433 -0.03274543583393097
0.0030129586812108755 -0.10633796453475952 -0.03317249193787575
0.003042890690267086 -0.10744529962539671 -0.03356113284826279
0.003068230813369155 -0.10847941786050795 -0.03392879292368889
0.0030884635634720325 -0.10943248122930527 -0.034297000616788864
0.0031033288687467575 -0.11029480397701263 -0.034692343324422836
0.003112840000540018 -0.11105445027351378 -0.03514765948057175
0.0031172798480838537 -0.11169920861721039 -0.03569645807147026
0.0031171797309070826 -0.11221988499164581 -0.03636401519179344
0.0031132809817790985 -0.1126132607460022 -0.03715918958187103
0.0031064841896295547 -0.11288396269083023 -0.03806924819946289
0.0030977895949035883 -0.11304491013288498 -0.03905869647860527
0.003088234690949321 -0.11311624944210052 -0.04007218778133392

CELLS 50 150
2 0 1
2 1 2
2 2 3
2 3 4
2 4 5
2 5 6
2 6 7
2 7 8
2 8 9
2 9 10
2 10 11
2 11 12
2 12 13
2 13 14
2 14 15
2 15 16
2 16 17
2 17 18
2 18 19
2 19 20
2 20 21
2 21 22
2 22 23
2 23 24
2 24 25
2 25 26
2 26 27
2 27 28
2 28 29
2 29 30
2 30 31
2 31 32
2 32 33
2 33 34
2 34 35
2 35 36
2 36 37
2 37 38
2 38 39
2 39 40
2 40 41
2 41 42
2 42 43
2 43 44
2 44 45
2 45 46
2 46 47
2 47 48
2 48 49
2 49 50

CELL_TYPES 50
4
4
4
4
4
4
4
4
4
4
4
4
4
4
4
4
4
4
4
4
4
4
4
4
4
4
4
4
4
4
4
4
4
4
4
4
4
4
4
4
4
4
4
4
4
4
4
4
4
4

POINT_DATA 51

SCALARS zone float
LOOKUP_TABLE default
1.0
1.0
1.0
1.0
1.0
1.0
1.0
1.0
1.0
1.0
1.0
1.0
1.0
1.0
1.0
1.0
1.0
1.0
1.0
1.0
1.0
1.0
1.0
1.0
1.0
1.0
1.0
1.0
1.0
1.0
1.0
1.0
1.0
1.0
1.0
1.0
1.0
1.0
1.0
1.0
1.0
1.0
1.0
1.0
1.0
1.0
1.0
1.0
1.0
1.0
1.0

VECTORS normals float
-0.00018154516874346882 -0.0019426726503297689 -0.0007100414950400591
-0.00031745340675115585 -0.003914083819836378 -0.001230047782883048
-0.0003203890810254961 -0.00392992002889514 -0.0009643859812058508
-0.00042105361353605986 -0.003900317940860987 -0.0008235644199885428
-0.0004630943294614554 -0.003831295063719154 -0.0007910499116405845
-0.00036171305691823363 -0.0036676304880529646 -0.0010185620049014688
-0.0001455355522921309 -0.0034835566766560078 -0.0013021480990573764
7.072663720464334e-5 -0.003398149507120252 -0.0013146495912224054
0.00020198317361064258 -0.003328206716105342 -0.001284662983380258
0.00024425858282484114 -0.0032313871197402473 -0.0013285200111567974
0.0002273943391628563 -0.0031753794755786657 -0.0012602470815181732
0.00017962048877961934 -0.003128744661808014 -0.0011662226170301437
0.0001230136549565941 -0.003053512657061219 -0.0011507677845656872
7.320909935515374e-5 -0.0029647210612893105 -0.0011725682998076081
3.8772002881160006e-5 -0.0028868233785033226 -0.001164437853731215
2.1685751562472433e-5 -0.0028273381758481264 -0.001105719362385571
1.9110158973489888e-5 -0.0027786418795585632 -0.001017358503304422
2.5710261979838833e-5 -0.0027258340269327164 -0.000940294296015054
3.630685023381375e-5 -0.002658239798620343 -0.0009038551361300051
4.732568413601257e-5 -0.0025761863216757774 -0.0009071425884030759
5.6640183174749836e-5 -0.002488219877704978 -0.0009266755660064518
6.314866186585277e-5 -0.002403541933745146 -0.0009371736086905004
6.649269198533148e-5 -0.002326376037672162 -0.0009270324953831732
6.683685205643997e-5 -0.002256298903375864 -0.0008974146912805736
6.468839274020866e-5 -0.002191037405282259 -0.0008545666350983083
6.0754482547054074e-5 -0.002128153806552291 -0.0008051850018091499
5.583223173744046e-5 -0.0020654310937970877 -0.0007553614559583366
5.072306885267608e-5 -0.0020009654108434916 -0.0007103270036168396
4.616025398718193e-5 -0.0019332466181367636 -0.0006742301629856229
4.268924021744169e-5 -0.001861430355347693 -0.000649391149636358
4.052436997881159e-5 -0.0017857200000435112 -0.0006352508207783103
3.9547361666336656e-5 -0.001707302639260888 -0.0006285481504164636
3.943082629120909e-5 -0.001627889694646001 -0.0006245806580409408
3.97539661207702e-5 -0.0015493055107071996 -0.0006183359655551612
4.0087012166623026e-5 -0.0014731977134943008 -0.0006052879034541547
4.004923903266899e-5 -0.0014008473372086883 -0.0005819160141982138
3.934526102966629e-5 -0.0013329170178622007 -0.0005464004352688789
3.778377140406519e-5 -0.0012687090784311295 -0.0005006575956940651
3.528250090312213e-5 -0.0012057704152539372 -0.0004514275642577559
3.186270623700693e-5 -0.001140774809755385 -0.0004078487982042134
2.7636049708235078e-5 -0.0010707273613661528 -0.000378149765310809
2.2786460249335505e-5 -0.0009935885900631547 -0.0003679341753013432
1.7549085896462202e-5 -0.0009076932910829782 -0.00038177677197381854
1.21881839731941e-5 -0.0008109842310659588 -0.00042532992665655916
6.97543964633951e-6 -0.0007022012723609805 -0.0005020560347475111
2.169919071093318e-6 -0.0005827196291647851 -0.0006081762840040028
-1.999401547436719e-6 -0.00045702504576183856 -0.0007313666865229607
-5.347871592675801e-6 -0.0003320366085972637 -0.0008526169112883508
-7.745714356133249e-6 -0.00021582456247415394 -0.0009497540886513889
-9.124661119130906e-6 -0.00011614424147410318 -0.0010014708386734128
-4.777432877745014e-6 -3.5670444049173966e-5 -0.0005067453603260219

CELL_DATA 50

VECTORS liftinglineloading               float
0.04720822349190712 0.0267301183193922 -0.057322923094034195
-0.017452044412493706 0.0012153089046478271 -0.0026062384713441133
0.06094321236014366 0.030880047008395195 -0.06622247397899628
0.03145614638924599 0.05373511835932731 -0.1152353286743164
-0.3429214358329773 0.11772792786359787 -0.2524683475494385
-1.1379029750823975 0.21791920065879825 -0.46732923388481135
-2.1850149631500244 0.34109869599342346 -0.7314885258674622
-3.318145513534546 0.4618619680404663 -0.9904661774635315
-4.711934566497803 0.5956764221191406 -1.2774322032928467
-5.951321125030518 0.7014602422714233 -1.504286289215088
-6.928847789764404 0.7693874835968018 -1.6499568223953247
-7.706777095794679 0.8167112469673156 -1.7514429092407227
-8.238210678100586 0.8349928855895996 -1.790648102760315
-7.869943141937256 0.7791104316711426 -1.6708077192306516
-8.055371284484863 0.7503093481063843 -1.6090434789657593
-8.28635311126709 0.7302308678627014 -1.565985083580017
-8.35006046295166 0.6999833583831787 -1.5011191368103027
-8.630331039428711 0.6835582256317139 -1.4658952951431274
-8.85871410369873 0.6714099645614624 -1.4398432970046997
-8.946893692016602 0.6686421632766724 -1.4339077472686768
-9.50285816192627 0.6658592820167542 -1.427939772605896
-9.780210494995117 0.6431888341903687 -1.37932288646698
-9.784306526184082 0.617384135723114 -1.3239845037460327
-9.924042701721191 0.6035033464431763 -1.2942171096801758
-10.064465522766113 0.5867783427238464 -1.258350133895874
-10.277745246887207 0.5741841197013855 -1.23134183883667
-10.567830085754395 0.5602817535400391 -1.2015280723571777
-10.871331214904785 0.5429046750068665 -1.1642628908157349
-11.203974723815918 0.5242234468460083 -1.124200701713562
-11.557036399841309 0.503523588180542 -1.0798097848892212
-11.707515716552734 0.47936475276947016 -1.028001070022583
-12.262624740600586 0.4657132625579834 -0.9987252950668334
-12.322732925415039 0.4367038011550903 -0.9365143179893494
-12.364958763122559 0.4187057614326477 -0.8979174494743348
-12.379258155822754 0.40414172410964966 -0.8666847348213196
-12.357759475708008 0.39035192131996155 -0.8371123671531676
-12.267377853393555 0.3834843039512634 -0.8223847150802612
-12.127941131591797 0.37811997532844543 -0.8108808994293213
-11.946799278259277 0.3692680299282074 -0.7918978333473206
-11.561545372009277 0.3610568642616272 -0.7742888927459717
-11.259659767150879 0.3513069748878479 -0.7533802390098572
-10.598943710327148 0.34160715341567993 -0.7325788736343384
-9.581616401672363 0.38775843381881714 -0.8315505981445312
-8.385887145996094 0.4178868234157562 -0.8961611390113832
-7.262651443481446 0.49602416157722473 -1.0637272596359253
-6.1186604499816895 0.5244536995887756 -1.124694585800171
-5.257776737213135 0.5422218441963196 -1.162798523902893
-4.273394584655762 0.5618473291397095 -1.204885482788086
-3.316182374954224 0.5736559629440308 -1.230209231376648
-1.8409953117370605 0.5990822911262512 -1.284736156463623