# vtk DataFile Version 4.0
 
ASCII
DATASET UNSTRUCTURED_GRID
POINTS 51 float
0.0029719590675085783 0.0071194046176970005 0.0026325727812945843
0.002608868759125471 0.009487566538155079 0.0060243792831897736
0.0023370522540062666 0.012120811268687248 0.009137817658483982
0.0019680906552821398 0.01481967233121395 0.012112556025385857
0.0014949451433494687 0.01756596378982067 0.01496132742613554
0.001041901996359229 0.020189043134450912 0.0178036168217659
0.0007715190295130014 0.022406211122870445 0.02083737403154373
0.0007508308626711369 0.024402406066656113 0.023933103308081627
0.0009129723184742035 0.026465309783816338 0.026889367029070854
0.0011547972681000829 0.028381315991282467 0.029855733737349514
0.0014014894841238856 0.0302352886646986 0.03277278319001198
0.0016095859464257958 0.032137855887413025 0.03556304797530174
0.0017607304034754632 0.03402328863739967 0.03827255964279175
0.0018556131981313229 0.035820335149765015 0.0409511998295784
0.0019071486312896013 0.03753528743982315 0.043594568967819214
0.0019331572111696005 0.03921404108405113 0.04617053270339966
0.0019505200907588003 0.040898896753787994 0.048649463802576065
0.0019713775254786015 0.042599234730005264 0.051024802029132836
0.002001940505579114 0.044285982847213745 0.05331689864397049
0.0020439913496375084 0.04591738060116768 0.055554997175931924
0.0020965919829905033 0.04746592789888382 0.057758353650569916
0.002157271606847644 0.04893080145120621 0.05992754548788071
0.0022228893358260393 0.050328578799963 0.062050960958004
0.0022902570199221373 0.05167866498231887 0.064115010201931
0.0023565629962831736 0.05299561098217964 0.06610951572656631
0.0024196337908506393 0.05428793281316757 0.0680285096168518
0.002478071954101324 0.055558502674102776 0.06986997276544571
0.002531298203393817 0.05680521950125694 0.07163538783788681
0.0025795181281864643 0.05802183970808983 0.07332912087440491
0.0026236188132315874 0.0591990202665329 0.0749577060341835
0.002664896659553051 0.06032647565007209 0.07652836292982101
0.002704667393118143 0.06139584258198738 0.07804694026708603
0.0027439913246780634 0.06240251660346985 0.07951665669679642
0.0027835292275995016 0.06334633380174637 0.08093763142824173
0.0028234992641955614 0.06423142552375793 0.08230696618556976
0.0028637030627578497 0.06506551802158356 0.08361925929784775
0.0029035976622253656 0.06585889309644699 0.08486730605363846
0.0029423937667161226 0.06662243604660034 0.08604348450899124
0.0029791651759296656 0.06736309081315994 0.0871429368853569
0.0030129586812108755 0.06808000057935715 0.0881662666797638
0.003042890690267086 0.06876416504383087 0.08911976218223572
0.003068230813369155 0.06940038502216339 0.09001407772302628
0.0030884635634720325 0.06996988505125046 0.09086234867572784
0.0031033288687467575 0.07044950127601624 0.09168080985546112
0.003112840000540018 0.07081060856580734 0.09248949587345123
0.0031172798480838537 0.07102398574352264 0.09330885857343674
0.0031171797309070826 0.07106760889291763 0.09415433555841446
0.0031132809817790985 0.0709337443113327 0.09503133594989777
0.0031064841896295547 0.07063350081443787 0.09593208134174347
0.0030977895949035883 0.07019782066345215 0.09683490544557571
0.003088234690949321 0.06967494636774063 0.09770602732896805

CELLS 50 150
2 0 1
2 1 2
2 2 3
2 3 4
2 4 5
2 5 6
2 6 7
2 7 8
2 8 9
2 9 10
2 10 11
2 11 12
2 12 13
2 13 14
2 14 15
2 15 16
2 16 17
2 17 18
2 18 19
2 19 20
2 20 21
2 21 22
2 22 23
2 23 24
2 24 25
2 25 26
2 26 27
2 27 28
2 28 29
2 29 30
2 30 31
2 31 32
2 32 33
2 33 34
2 34 35
2 35 36
2 36 37
2 37 38
2 38 39
2 39 40
2 40 41
2 41 42
2 42 43
2 43 44
2 44 45
2 45 46
2 46 47
2 47 48
2 48 49
2 49 50

CELL_TYPES 50
4
4
4
4
4
4
4
4
4
4
4
4
4
4
4
4
4
4
4
4
4
4
4
4
4
4
4
4
4
4
4
4
4
4
4
4
4
4
4
4
4
4
4
4
4
4
4
4
4
4

POINT_DATA 51

SCALARS zone float
LOOKUP_TABLE default
1.0
1.0
1.0
1.0
1.0
1.0
1.0
1.0
1.0
1.0
1.0
1.0
1.0
1.0
1.0
1.0
1.0
1.0
1.0
1.0
1.0
1.0
1.0
1.0
1.0
1.0
1.0
1.0
1.0
1.0
1.0
1.0
1.0
1.0
1.0
1.0
1.0
1.0
1.0
1.0
1.0
1.0
1.0
1.0
1.0
1.0
1.0
1.0
1.0
1.0
1.0

VECTORS normals float
-0.00018154516874346882 0.0011840811930596828 0.0016959032509475946
-0.00031745340675115585 0.0025007035583257675 0.003252622438594699
-0.0003203890810254961 0.002666052896529436 0.003044088138267398
-0.00042105361353605986 0.0027225762605667114 0.002911754883825779
-0.0004630943294614554 0.0026846856344491243 0.002845530863851309
-0.00036171305691823363 0.0024201238993555307 0.0029380235355347395
-0.0001455355522921309 0.0021066812332719564 0.0030647432431578636
7.072663720464334e-5 0.0020295490976423025 0.0030259964987635612
0.00020198317361064258 0.001989454962313175 0.0029613152146339417
0.00024425858282484114 0.0018849896732717755 0.002941707381978631
0.0002273943391628563 0.0018782706465572117 0.0028536568861454725
0.00017962048877961934 0.0018939997535198927 0.0027498877607285976
0.0001230136549565941 0.0018412380013614893 0.0026940766256302595
7.320909935515374e-5 0.0017559997504577039 0.002661005826666951
3.8772002881160006e-5 0.0016968530835583806 0.0026096655055880547
2.1685751562472433e-5 0.001681805239059031 0.0025274467188864946
1.9110158973489888e-5 0.0016925972886383531 0.002427134895697236
2.5710261979838833e-5 0.001693541766144335 0.002333718119189143
3.630685023381375e-5 0.00165907246991992 0.0022650985047221184
4.732568413601257e-5 0.001589972642250359 0.002220727503299713
5.6640183174749836e-5 0.0015067111235111952 0.0021862725261598825
6.314866186585277e-5 0.0014313255669549108 0.0021463027223944664
6.649269198533148e-5 0.0013739316491410136 0.0020937349181622267
6.683685205643997e-5 0.0013335159746930003 0.002029279014095664
6.468839274020866e-5 0.0013046334497630596 0.001956747379153967
6.0754482547054074e-5 0.0012814464280381799 0.0018802278209477663
5.583223173744046e-5 0.0012586446246132255 0.0018034385284408927
5.072306885267608e-5 0.0012316680513322353 0.0017295724246650934
4.616025398718193e-5 0.0011969003826379776 0.001661161775700748
4.268924021744169e-5 0.001152319018729031 0.0015996226575225592
4.052436997881159e-5 0.0010984112741425633 0.001544613973237574
3.9547361666336656e-5 0.0010380200110375881 0.0014941450208425522
3.943082629120909e-5 0.0009752443875186146 0.0014453456969931722
3.97539661207702e-5 0.0009144538780674337 0.0013951563742011786
4.0087012166623026e-5 0.0008595940307714045 0.0013408142840489745
4.004923903266899e-5 0.0008137336699292065 0.0012801707489416003
3.934526102966629e-5 0.0007784593035466969 0.0012121148174628615
3.778377140406519e-5 0.0007521002553403378 0.001137816347181797
3.528250090312213e-5 0.0007287810440175235 0.0010613893391564488
3.186270623700693e-5 0.0007005355437286198 0.0009884117171168327
2.7636049708235078e-5 0.0006601907080039382 0.00092390610370785
2.2786460249335505e-5 0.0006028617499396205 0.0008712930139154195
1.7549085896462202e-5 0.0005245606298558414 0.0008333646692335606
1.21881839731941e-5 0.0004203601856715978 0.0008135713287629186
6.97543964633951e-6 0.00028724208823405206 0.0008140262798406184
2.169919071093318e-6 0.00012850041093770415 0.0008324231021106243
-1.999401547436719e-6 -4.512168015935458e-5 0.0008612392703071237
-5.347871592675801e-6 -0.00021705249673686922 0.0008888712618499994
-7.745714356133249e-6 -0.0003679634537547827 0.0009017849224619567
-9.124661119130906e-6 -0.00047928025014698505 0.0008869744488038123
-4.777432877745014e-6 -0.0002614376717247069 0.0004355612036306411

CELL_DATA 50

VECTORS liftinglineloading               float
0.05165636911988258 -0.05772780254483223 0.03332916274666786
-0.007795155979692936 -0.010516393929719925 0.0060716429725289345
0.05869580432772637 -0.05844922363758088 0.03374567627906799
0.05485342815518379 -0.105064757168293 0.060659166425466544
-0.2948720157146454 -0.22977332770824432 0.1326596885919571
-1.1011571884155273 -0.44022879004478455 0.25416621565818787
-2.157317638397217 -0.6998475193977356 0.4040571451187134
-3.3040595054626465 -0.9503000974655152 0.5486560463905334
-4.710252285003662 -1.2274136543273926 0.708647608757019
-5.953066349029541 -1.445600152015686 0.8346176147460939
-6.931861877441406 -1.584194540977478 0.9146351218223572
-7.741393089294433 -1.6846596002578735 0.972638726234436
-8.288407325744629 -1.7233809232711792 0.9949944615364075
-7.998860836029052 -1.613630771636963 0.9316301345825195
-8.083086013793945 -1.5461442470550537 0.8926668167114258
-8.232772827148438 -1.4985425472259521 0.86518394947052
-8.350565910339355 -1.440984845161438 0.8319529891014099
-8.678220748901367 -1.4101792573928833 0.8141673803329468
-8.941676139831543 -1.3863435983657837 0.8004058599472046
-9.053194999694824 -1.3815428018569946 0.7976341247558594
-9.434785842895508 -1.3689213991165161 0.790347158908844
-9.732156753540039 -1.322579026222229 0.7635913491249084
-9.76684856414795 -1.2703299522399902 0.7334253191947937
-9.941291809082031 -1.242383360862732 0.7172903418540955
-10.193133354187012 -1.2084531784057617 0.6977007985115051
-10.455530166625977 -1.181260108947754 0.6820008754730225
-10.79406452178955 -1.1506924629211426 0.6643525958061218
-11.157215118408203 -1.113340139389038 0.6427872180938721
-11.536478996276855 -1.0725592374801636 0.6192423701286316
-11.929346084594727 -1.0279370546340942 0.5934797525405884
-12.084393501281738 -0.9756504893302917 0.5632920861244202
-12.60934066772461 -0.9451440572738647 0.5456791520118713
-12.64462947845459 -0.8837407231330873 0.5102279782295227
-12.66207218170166 -0.8484556674957275 0.48985609412193293
-12.6517333984375 -0.8204241991043092 0.47367212176322937
-12.582919120788574 -0.7949018478393555 0.45893678069114685
-12.478158950805664 -0.7821841835975647 0.45159423351287836
-12.326532363891602 -0.7721396684646606 0.4457950294017792
-12.13593864440918 -0.7545650005340576 0.4356482923030853
-11.737628936767578 -0.7385249733924866 0.42638760805130005
-11.427066802978516 -0.71906578540802 0.41515281796455383
-10.753790855407715 -0.7008244395256042 0.4046211838722229
-9.7196683883667 -0.7964040637016296 0.459804117679596
-8.375556945800781 -0.8579727411270142 0.49535077810287476
-7.255884647369386 -1.0180691480636597 0.5877825021743774
-6.115528583526611 -1.0763784646987915 0.6214473843574524
-5.258997440338135 -1.1129447221755981 0.6425589323043823
-4.279224872589111 -1.1533666849136353 0.6658965945243835
-3.3271374702453613 -1.1777926683425903 0.6799989342689514
-1.8540515899658203 -1.2302296161651611 0.7102733850479126