# vtk DataFile Version 4.0
 
ASCII
DATASET UNSTRUCTURED_GRID
POINTS 51 float
0.0029719590675085783 0.0007002325728535652 -0.007558176759630441
0.002608868759125471 0.0033635403960943226 -0.010723509825766087
0.0023370522540062666 0.005689357407391071 -0.014072845689952372
0.0019680906552821398 0.007864217273890972 -0.01744966395199299
0.0014949451433494687 0.009905126877129078 -0.020839694887399673
0.001041901996359229 0.011971664614975452 -0.02410903386771679
0.0007715190295130014 0.014328204095363617 -0.027035847306251526
0.0007508308626711369 0.01680179499089718 -0.029765257611870762
0.0009129723184742035 0.019123408943414688 -0.032523006200790405
0.0011547972681000829 0.02149279974400997 -0.0351414792239666
0.0014014894841238856 0.023830607533454895 -0.0376872681081295
0.0016095859464257958 0.026033377274870872 -0.04024717956781387
0.0017607304034754632 0.02816257625818253 -0.04276964068412781
0.0018556131981313229 0.030284838750958443 -0.04519873484969139
0.0019071486312896013 0.032394275069236755 -0.04753940925002098
0.0019331572111696005 0.03444796800613403 -0.04982766509056091
0.0019505200907588003 0.03640636056661606 -0.052096709609031684
0.0019713775254786015 0.03826067969202995 -0.054353892803192146
0.002001940505579114 0.04003811627626419 -0.05657640099525452
0.0020439913496375084 0.04177771508693695 -0.05873147398233414
0.0020965919829905033 0.04350519925355911 -0.060797527432441704
0.002157271606847644 0.04522133991122246 -0.06277391314506531
0.0022228893358260393 0.04691062867641449 -0.06467364728450775
0.0022902570199221373 0.0485549233853817 -0.06651194393634796
0.0023565629962831736 0.0501406155526638 -0.06830023229122162
0.0024196337908506393 0.051659744232893 -0.07004518806934357
0.002478071954101324 0.05310961231589317 -0.07174907624721527
0.002531298203393817 0.054492197930812836 -0.07341023534536362
0.0025795181281864643 0.055813331156969063 -0.07502376288175583
0.0026236188132315874 0.057081751525402076 -0.07658234983682632
0.002664896659553051 0.05830708146095275 -0.07807789742946625
0.002704667393118143 0.05949713662266731 -0.0795038640499115
0.0027439913246780634 0.06065623089671135 -0.08085662871599197
0.0027835292275995016 0.06178450956940651 -0.08213605731725693
0.0028234992641955614 0.06287810951471329 -0.08334540575742722
0.0028637030627578497 0.06392980366945267 -0.08449072390794754
0.0029035976622253656 0.06492999196052551 -0.08558008074760437
0.0029423937667161226 0.06586846709251404 -0.08662202954292297
0.0029791651759296656 0.06673876196146011 -0.08762200176715851
0.0030129586812108755 0.06754167377948761 -0.08857934176921844
0.003042890690267086 0.06828560680150986 -0.0894869714975357
0.003068230813369155 0.06898478418588638 -0.09033297747373581
0.0030884635634720325 0.06965675204992294 -0.09110262989997864
0.0031033288687467575 0.07032318413257599 -0.0917777344584465
0.003112840000540018 0.07101085782051086 -0.09233583509922028
0.0031172798480838537 0.0717470794916153 -0.09275401383638382
0.0031171797309070826 0.07255245745182037 -0.09301497787237167
0.0031132809817790985 0.07343421876430511 -0.09311265498399734
0.0031064841896295547 0.07438197731971741 -0.09305577725172043
0.0030977895949035883 0.0753668025135994 -0.09286860376596451
0.003088234690949321 0.07634357362985611 -0.09258900582790375

CELLS 50 150
2 0 1
2 1 2
2 2 3
2 3 4
2 4 5
2 5 6
2 6 7
2 7 8
2 8 9
2 9 10
2 10 11
2 11 12
2 12 13
2 13 14
2 14 15
2 15 16
2 16 17
2 17 18
2 18 19
2 19 20
2 20 21
2 21 22
2 22 23
2 23 24
2 24 25
2 25 26
2 26 27
2 27 28
2 28 29
2 29 30
2 30 31
2 31 32
2 32 33
2 33 34
2 34 35
2 35 36
2 36 37
2 37 38
2 38 39
2 39 40
2 40 41
2 41 42
2 42 43
2 43 44
2 44 45
2 45 46
2 46 47
2 47 48
2 48 49
2 49 50

CELL_TYPES 50
4
4
4
4
4
4
4
4
4
4
4
4
4
4
4
4
4
4
4
4
4
4
4
4
4
4
4
4
4
4
4
4
4
4
4
4
4
4
4
4
4
4
4
4
4
4
4
4
4
4

POINT_DATA 51

SCALARS zone float
LOOKUP_TABLE default
1.0
1.0
1.0
1.0
1.0
1.0
1.0
1.0
1.0
1.0
1.0
1.0
1.0
1.0
1.0
1.0
1.0
1.0
1.0
1.0
1.0
1.0
1.0
1.0
1.0
1.0
1.0
1.0
1.0
1.0
1.0
1.0
1.0
1.0
1.0
1.0
1.0
1.0
1.0
1.0
1.0
1.0
1.0
1.0
1.0
1.0
1.0
1.0
1.0
1.0
1.0

VECTORS normals float
-0.00018154516874346882 0.0013316539116203785 -0.0015826666494831443
-0.00031745340675115585 0.002494562417268753 -0.0032573346979916096
-0.0003203890810254961 0.0022503382060676813 -0.0033630772959440942
-0.00042105361353605986 0.0021078847348690033 -0.0033834243658930063
-0.0004630943294614554 0.002053723903372884 -0.0033296847250312562
-0.00036171305691823363 0.002211538841947913 -0.0030980766750872135
-0.0001455355522921309 0.0024150654207915068 -0.0028281116392463446
7.072663720464334e-5 0.002397602191194892 -0.0027435794472694397
0.00020198317361064258 0.002345502143725753 -0.0026881108060479164
0.00024425858282484114 0.0023535999935120344 -0.0025821300223469734
0.0002273943391628563 0.002270288532599807 -0.0025528508704155684
0.00017962048877961934 0.0021659843623638153 -0.0025411867536604404
0.0001230136549565941 0.002125730738043785 -0.002475777640938759
7.320909935515374e-5 0.002115848008543253 -0.0023848845157772303
3.8772002881160006e-5 0.0020815653260797262 -0.0023144653532654047
2.1685751562472433e-5 0.002006042981520295 -0.002278650412335992
1.9110158973489888e-5 0.0019063558429479601 -0.002263112226501107
2.5710261979838833e-5 0.0018158777384087443 -0.0022398463916033506
3.630685023381375e-5 0.001758517581038177 -0.0021887915208935738
4.732568413601257e-5 0.001733542769216001 -0.002110562054440379
5.6640183174749836e-5 0.001721811480820179 -0.0020212200470268726
6.314866186585277e-5 0.0017027148278430104 -0.0019380582962185144
6.649269198533148e-5 0.0016667930176481605 -0.0018690145807340741
6.683685205643997e-5 0.0016149936709553003 -0.0018132935510948298
6.468839274020866e-5 0.001552408910356462 -0.0017666226485744119
6.0754482547054074e-5 0.0014844979159533978 -0.0017244210466742516
5.583223173744046e-5 0.001416226732544601 -0.0016825216589495542
5.072306885267608e-5 0.0013518595369532704 -0.0016373463440686466
4.616025398718193e-5 0.0012947784271091223 -0.001586057245731354
4.268924021744169e-5 0.0012468746863305569 -0.001527067506685853
4.052436997881159e-5 0.0012076927814632654 -0.001460759318433702
3.9547361666336656e-5 0.0011745739029720426 -0.0013893635477870703
3.943082629120909e-5 0.0011436848435550928 -0.001316096750088036
3.97539661207702e-5 0.0011109394254162908 -0.001244387705810368
4.0087012166623026e-5 0.0010726478649303317 -0.0011773323640227318
4.004923903266899e-5 0.0010259401751682162 -0.0011173388920724392
3.934526102966629e-5 0.0009693329338915647 -0.0010656523518264294
3.778377140406519e-5 0.0009043883183039724 -0.0010209615575149655
3.528250090312213e-5 0.0008366008987650274 -0.0009786562295630574
3.186270623700693e-5 0.0007734204409644008 -0.0009324850980192423
2.7636049708235078e-5 0.0007215548539534211 -0.0008768197731114923
2.2786460249335505e-5 0.0006855723331682384 -0.0008078269311226904
1.7549085896462202e-5 0.0006692021852359176 -0.0007223773282021284
1.21881839731941e-5 0.0006770523032173514 -0.0006166045204736292
6.97543964633951e-6 0.0007119452930055559 -0.0004881400673184544
2.169919071093318e-6 0.0007708006305620074 -0.00033956882543861866
-1.999401547436719e-6 0.0008435716154053808 -0.0001793209376046434
-5.347871592675801e-6 0.0009147609816864133 -2.040018625848461e-5
-7.745714356133249e-6 0.0009662932716310024 0.0001220262929564342
-9.124661119130906e-6 0.0009807983878999949 0.00023338329629041255
-4.777432877745014e-6 0.000488384859636426 0.0001397978630848229

CELL_DATA 50

VECTORS liftinglineloading               float
0.03788876160979271 0.0386868454515934 0.0386868454515934
-0.013652468100190163 0.004617008380591869 0.004617008380591869
0.055272087454795844 0.05800507217645645 0.05800507217645645
-0.026562638580799103 0.10215125232934952 0.10215125232934952
-0.4876050651073456 0.22566457092761996 0.22566457092761996
-1.2785892486572266 0.3880758285522461 0.3880758285522461
-2.3461174964904785 0.5840714573860168 0.5840714573860168
-3.486515045166015 0.7854316830635071 0.7854316830635071
-4.886505603790283 1.0080310106277466 1.0080310106277466
-6.137099266052246 1.1863785982131958 1.1863785982131958
-7.208778381347656 1.3090475797653198 1.3090475797653198
-7.98054838180542 1.3843082189559937 1.3843082189559937
-8.468452453613281 1.4107491970062256 1.4107491970062256
-8.19340705871582 1.3248825073242188 1.3248825073242188
-8.234363555908203 1.2696168422698975 1.2696168422698975
-8.443775177001953 1.2341015338897705 1.2341015338897705
-8.487303733825684 1.181004524230957 1.181004524230957
-8.731649398803711 1.1503626108169556 1.1503626108169556
-9.08609676361084 1.1328336000442505 1.1328336000442505
-9.109212875366211 1.1270358562469482 1.1270358562469482
-9.41948127746582 1.1142635345458984 1.1142635345458984
-9.641593933105469 1.0748881101608276 1.0748881101608276
-9.602182388305664 1.0313200950622559 1.0313200950622559
-9.74074935913086 1.0087342262268066 1.0087342262268066
-9.853431701660156 0.9820675253868102 0.9820675253868102
-10.03686237335205 0.9624316692352295 0.9624316692352295
-10.28555965423584 0.9408883452415465 0.9408883452415465
-10.52204704284668 0.9126814007759095 0.9126814007759095
-10.837059020996094 0.882849097251892 0.882849097251892
-11.212774276733398 0.8508426547050475 0.8508426547050475
-11.353314399719238 0.8124510049819946 0.8124510049819946
-11.920828819274902 0.7922211289405823 0.7922211289405823
-11.98867416381836 0.7460859417915344 0.7460859417915344
-12.039335250854492 0.714870035648346 0.714870035648346
-12.062889099121094 0.6890461444854736 0.6890461444854736
-12.256318092346191 0.6568441987037659 0.6568441987037659
-12.172724723815918 0.6445964574813843 0.6445964574813843
-12.060758590698242 0.6345130205154419 0.6345130205154419
-11.883251190185547 0.6193816065788269 0.6193816065788269
-11.501753807067871 0.605290412902832 0.605290412902832
-11.2006196975708 0.5887470841407776 0.5887470841407776
-10.540678977966309 0.5718910098075867 0.5718910098075867
-9.524896621704102 0.6487635970115662 0.6487635970115662
-8.18709945678711 0.6976805925369263 0.6976805925369263
-7.07324981689453 0.8258439302444458 0.8258439302444458
-5.9353346824646 0.8720349669456482 0.8720349669456482
-5.080385684967041 0.9012972116470336 0.9012972116470336
-4.10040807723999 0.9335678815841675 0.9335678815841675
-3.1522371768951416 0.9526813626289368 0.9526813626289368
-1.7243789434432981 0.9947291612625122 0.9947291612625122