# vtk DataFile Version 4.0
 
ASCII
DATASET UNSTRUCTURED_GRID
POINTS 51 float
0.0029719590675085783 0.004849298857152462 0.005839576944708824
0.002608868759125471 0.005204284097999334 0.009961049072444439
0.0023370522540062666 0.005928021855652332 0.01397398766130209
0.0019680906552821398 0.006777935195714235 0.017899617552757263
0.0014949451433494687 0.007731907069683075 0.02173987217247486
0.001041901996359229 0.008582415990531445 0.025512907654047012
0.0007715190295130014 0.008985660970211029 0.029248801991343498
0.0007508308626711369 0.009166551753878593 0.03292787820100784
0.0009129723184742035 0.00947494711726904 0.03651953116059303
0.0011547972681000829 0.009651074185967445 0.040046483278274536
0.0014014894841238856 0.009798137471079826 0.04349970817565918
0.0016095859464257958 0.010050676763057709 0.046867430210113525
0.0017607304034754632 0.010328752920031548 0.05015665292739868
0.0018556131981313229 0.010545718483626842 0.05337494611740112
0.0019071486312896013 0.010709227994084358 0.056521650403738015
0.0019331572111696005 0.010875088162720203 0.059591874480247504
0.0019505200907588003 0.011094753630459309 0.0625811219215393
0.0019713775254786015 0.01137961819767952 0.06548839062452316
0.002001940505579114 0.011694335378706455 0.06831678003072739
0.0020439913496375084 0.01198811735957861 0.07107073068618774
0.0020965919829905033 0.012227521277964115 0.07375316321849823
0.002157271606847644 0.012411545030772686 0.0763641744852066
0.0022228893358260393 0.012560347095131874 0.0789019986987114
0.0022902570199221373 0.01269752997905016 0.08136456459760666
0.0023565629962831736 0.012840786017477512 0.08375032991170883
0.0024196337908506393 0.013000473380088806 0.08605838567018509
0.002478071954101324 0.013180088251829149 0.08828842639923096
0.002531298203393817 0.013377071358263493 0.09044067561626434
0.0025795181281864643 0.013583827763795853 0.09251579642295837
0.0026236188132315874 0.013789001852273941 0.09451479464769363
0.002664896659553051 0.013980080373585226 0.09643874317407608
0.002704667393118143 0.014146892353892326 0.09828855097293854
0.0027439913246780634 0.01428383868187666 0.1000647023320198
0.0027835292275995016 0.014390719123184681 0.10176721215248107
0.0028234992641955614 0.014472562819719315 0.10339563339948653
0.0028637030627578497 0.014538765884935856 0.10494916141033173
0.0029035976622253656 0.014601820148527622 0.1064266934990883
0.0029423937667161226 0.01467498205602169 0.10782706737518309
0.0029791651759296656 0.014766679145395758 0.10914954543113708
0.0030129586812108755 0.014875878579914572 0.11039422452449799
0.003042890690267086 0.014991630800068378 0.1115620583295822
0.003068230813369155 0.015095456503331663 0.1126546710729599
0.0030884635634720325 0.015164525248110296 0.11367404460906982
0.0031033288687467575 0.015170657075941563 0.11462265998125076
0.003112840000540018 0.015079039148986341 0.11550355702638627
0.0031172798480838537 0.014854148961603643 0.11631983518600462
0.0031171797309070826 0.014469184912741184 0.11707385629415512
0.0031132809817790985 0.01391475647687912 0.11776642501354218
0.0031064841896295547 0.013204367831349375 0.11839637160301208
0.0030977895949035883 0.012375639751553535 0.11896040290594101
0.003088234690949321 0.011487255804240704 0.11945337802171707

CELLS 50 150
2 0 1
2 1 2
2 2 3
2 3 4
2 4 5
2 5 6
2 6 7
2 7 8
2 8 9
2 9 10
2 10 11
2 11 12
2 12 13
2 13 14
2 14 15
2 15 16
2 16 17
2 17 18
2 18 19
2 19 20
2 20 21
2 21 22
2 22 23
2 23 24
2 24 25
2 25 26
2 26 27
2 27 28
2 28 29
2 29 30
2 30 31
2 31 32
2 32 33
2 33 34
2 34 35
2 35 36
2 36 37
2 37 38
2 38 39
2 39 40
2 40 41
2 41 42
2 42 43
2 43 44
2 44 45
2 45 46
2 46 47
2 47 48
2 48 49
2 49 50

CELL_TYPES 50
4
4
4
4
4
4
4
4
4
4
4
4
4
4
4
4
4
4
4
4
4
4
4
4
4
4
4
4
4
4
4
4
4
4
4
4
4
4
4
4
4
4
4
4
4
4
4
4
4
4

POINT_DATA 51

SCALARS zone float
LOOKUP_TABLE default
1.0
1.0
1.0
1.0
1.0
1.0
1.0
1.0
1.0
1.0
1.0
1.0
1.0
1.0
1.0
1.0
1.0
1.0
1.0
1.0
1.0
1.0
1.0
1.0
1.0
1.0
1.0
1.0
1.0
1.0
1.0
1.0
1.0
1.0
1.0
1.0
1.0
1.0
1.0
1.0
1.0
1.0
1.0
1.0
1.0
1.0
1.0
1.0
1.0
1.0
1.0

VECTORS normals float
-0.00018154516874346882 0.00017749276594258845 0.0020607358310371637
-0.00031745340675115585 0.0005393614992499352 0.004067205358296633
-0.0003203890810254961 0.0007868254324421287 0.003969284240156412
-0.00042105361353605986 0.0009019427234306931 0.003882941789925099
-0.0004630943294614554 0.0009022406302392483 0.003806644817814231
-0.00036171305691823363 0.000626876950263977 0.003754465142264962
-0.0001455355522921309 0.00029206773615442216 0.0037074862048029895
7.072663720464334e-5 0.0002446428406983614 0.0036353643517941236
0.00020198317361064258 0.00024226095410995185 0.0035593018401414156
0.00024425858282484114 0.00016159522056113929 0.0034900882747024298
0.0002273943391628563 0.0001998016523430124 0.0034104746300727125
0.00017962048877961934 0.00026530801551416516 0.0033284726087003946
0.0001230136549565941 0.0002475205110386014 0.0032537579536437984
7.320909935515374e-5 0.00019023749337065965 0.003182498505339027
3.8772002881160006e-5 0.00016468520334456116 0.0031084632501006126
2.1685751562472433e-5 0.000192762614460662 0.0030297357589006424
1.9110158973489888e-5 0.00025226481375284493 0.0029482590034604073
2.5710261979838833e-5 0.0002997911360580474 0.0028678299859166145
3.630685023381375e-5 0.0003042497264686972 0.002791169099509716
4.732568413601257e-5 0.00026659294962882996 0.00271819275803864
5.6640183174749836e-5 0.00021171386470086873 0.002646723063662648
6.314866186585277e-5 0.00016641293768770993 0.002574415411800146
6.649269198533148e-5 0.00014299219765234739 0.002500193426385522
6.683685205643997e-5 0.00014021921379026026 0.002424165140837431
6.468839274020866e-5 0.00015147200610954314 0.002346909837797284
6.0754482547054074e-5 0.000169651277246885 0.0022690482437610626
5.583223173744046e-5 0.00018829895998351276 0.0021911459043622017
5.072306885267608e-5 0.0002018696250161156 0.0021136878058314323
4.616025398718193e-5 0.00020596527610905468 0.002037058351561427
4.268924021744169e-5 0.00019812618847936395 0.001961473375558853
4.052436997881159e-5 0.00017894509073812515 0.0018868804909288883
3.9547361666336656e-5 0.00015187916869763285 0.0018129775999113917
3.943082629120909e-5 0.00012191361020086333 0.0017393282614648342
3.97539661207702e-5 9.43621271289885e-5 0.0016654677456244824
4.0087012166623026e-5 7.402309711324051e-5 0.001590976258739829
4.004923903266899e-5 6.46286498522386e-5 0.001515527255833149
3.934526102966629e-5 6.810812919866294e-5 0.0014389519346877933
3.778377140406519e-5 8.242976036854088e-5 0.0013614279450848699
3.528250090312213e-5 0.00010044824739452451 0.0012835805537179112
3.186270623700693e-5 0.00011247570364503191 0.0012062573805451393
2.7636049708235078e-5 0.00010978885256918147 0.0011302215280011296
2.2786460249335505e-5 8.644706394989043e-5 0.0010559927904978395
1.7549085896462202e-5 3.760049366974272e-5 0.0009839952690526843
1.21881839731941e-5 -4.2743064113892615e-5 0.0009147535311058165
6.97543964633951e-6 -0.00015825420268811285 0.0008485884754918516
2.169919071093318e-6 -0.0003049269434995949 0.0007851497502997518
-1.999401547436719e-6 -0.00046969615505076945 0.0007232942734844983
-5.347871592675801e-6 -0.0006324085989035666 0.0006612588185817003
-7.745714356133249e-6 -0.0007695581298321486 0.0005969869089312851
-9.124661119130906e-6 -0.0008585561299696565 0.0005285022780299187
-4.777432877745014e-6 -0.00044419226469472056 0.0002464882272761315

CELL_DATA 50

VECTORS liftinglineloading               float
0.1586843729019165 -0.13737748563289642 3.4019513962494513e-16
0.22950193285942078 -0.2337120622396469 5.787535782989851e-16
-0.20793184638023376 -0.11461138725280763 2.838182677820342e-16
0.09269464015960693 -0.05324014276266098 1.318413929241811e-16
0.1718233972787857 -0.08834318816661835 2.1876892999465192e-16
-0.3600214123725891 -0.28214675188064575 6.986949788774109e-16
-1.2826189994812012 -0.6549391746520996 1.6218605709199078e-15
-2.572516441345215 -1.0323553085327148 2.5564763014038292e-15
-3.9547016620635986 -1.3701080083847046 3.392871150115326e-15
-5.192022800445557 -1.6292526721954343 4.034604698537102e-15
-6.077455520629883 -1.7617692947387695 4.362762626478837e-15
-6.8734588623046875 -1.890599012374878 4.681790809798591e-15
-7.481210708618164 -1.9443029165267944 4.814780488231673e-15
-7.15345811843872 -1.8081178665161133 4.477538131930636e-15
-7.02933406829834 -1.693810224533081 4.194472002935984e-15
-7.19256067276001 -1.6448355913162231 4.07319340203164e-15
-7.159106254577638 -1.5816253423690796 3.9166625604119924e-15
-7.545965194702148 -1.5799704790115356 3.912564615013176e-15
-7.559463500976563 -1.5448222160339355 3.825525203419219e-15
-7.8848161697387695 -1.5431691408157349 3.821431493185139e-15
-8.283875465393066 -1.5454902648925781 3.827179458765206e-15
-8.618796348571777 -1.4990125894546509 3.7120841983758184e-15
-8.774442672729492 -1.452937126159668 3.5979850487324015e-15
-9.06905746459961 -1.433037281036377 3.5487061541688044e-15
-9.384163856506348 -1.4065239429473877 3.4830498775700446e-15
-9.72256851196289 -1.3839433193206787 3.4271321505241047e-15
-10.071407318115234 -1.3551344871520996 3.355791224058085e-15
-10.358637809753418 -1.3132827281951904 3.2521518725220746e-15
-10.690085411071777 -1.2705813646316528 3.146408067628611e-15
-11.039928436279297 -1.2254389524459839 3.0346196238653033e-15
-11.200672149658203 -1.1714636087417603 2.9009574012721015e-15
-11.787969589233398 -1.144235610961914 2.8335312493300542e-15
-11.858702659606934 -1.0803953409194946 2.675440384779801e-15
-11.882062911987305 -1.0370466709136963 2.5680935700336588e-15
-11.915398597717285 -0.9981337189674377 2.4717315020639837e-15
-11.88737678527832 -0.9615520238876343 2.3811421753880836e-15
-11.806291580200195 -0.9404215812683105 2.328815868038502e-15
-11.674570083618164 -0.9240394830703734 2.2882478603044676e-15
-11.499460220336914 -0.9004483222961426 2.2298277861741017e-15
-11.14034652709961 -0.8771687150001526 2.1721793590586845e-15
-10.859253883361816 -0.8510650396347047 2.107537404414262e-15
-10.23432445526123 -0.8200771808624268 2.0308006663159956e-15
-9.269051551818848 -0.9261343479156494 2.2934355135899266e-15
-7.957773685455323 -0.9919008016586304 2.456296655940879e-15
-6.875711917877196 -1.1685330867767334 2.8937002347382635e-15
-5.764994144439697 -1.232053279876709 3.05099869996636e-15
-4.932161331176758 -1.2733314037322998 3.1532180007662986e-15
-3.9763174057006836 -1.3192209005355835 3.266856788002883e-15
-2.8734636306762695 -1.3455486297607422 3.33205333746952e-15
-1.6661362648010254 -1.4063353538513184 3.482582738899634e-15