# vtk DataFile Version 4.0
 
ASCII
DATASET UNSTRUCTURED_GRID
POINTS 51 float
0.0029719590675085783 -0.006592932622879744 0.0037615951150655746
0.002608868759125471 -0.010713432915508747 0.0033955015242099758
0.0023370522540062666 -0.014791081659495829 0.003411404322832823
0.0019680906552821398 -0.018804658204317093 0.003566727042198181
0.0014949451433494687 -0.022752225399017334 0.0038393530994653706
0.001041901996359229 -0.026615628972649578 0.004021760541945696
0.0007715190295130014 -0.030364790931344036 0.0037701474502682686
0.0007508308626711369 -0.034019384533166885 0.003309425199404359
0.0009129723184742035 -0.037610024213790894 0.0029894511681050062
0.0011547972681000829 -0.04111397638916969 0.002550453646108508
0.0014014894841238856 -0.04454027861356735 0.0020956366788595915
0.0016095859464257958 -0.047900691628456116 0.0017595405224710705
0.0017607304034754632 -0.05118823051452637 0.001462225103750825
0.0018556131981313229 -0.05439530685544013 0.0011170424986630678
0.0019071486312896013 -0.05752259492874146 0.000731649633962661
0.0019331572111696005 -0.0605749785900116 0.0003618511254899204
0.0019505200907588003 -0.06355695426464081 5.910167237743735e-5
0.0019713775254786015 -0.06646952778100967 -0.00016520377539563924
0.002001940505579114 -0.06930959224700928 -0.00034641197999008
0.0020439913496375084 -0.07207272201776505 -0.0005353116430342197
0.0020965919829905033 -0.07475597411394119 -0.0007653447682969272
0.002157271606847644 -0.07735927402973175 -0.0010375140700489283
0.0022228893358260393 -0.07988438010215759 -0.001331660314463079
0.0022902570199221373 -0.08233335614204407 -0.0016241824487224221
0.0023565629962831736 -0.08470775187015533 -0.0018973861588165164
0.0024196337908506393 -0.08700846880674362 -0.0021409140899777412
0.002478071954101324 -0.089235819876194 -0.0023512705229222775
0.002531298203393817 -0.09138958156108856 -0.002531014382839203
0.0025795181281864643 -0.09346908330917358 -0.002687741070985794
0.0026236188132315874 -0.09547333419322968 -0.0028328050393611193
0.002664896659553051 -0.09740123897790909 -0.0029787211678922176
0.002704667393118143 -0.09925191104412079 -0.0031356588006019592
0.0027439913246780634 -0.10102485865354538 -0.0033092182129621506
0.0027835292275995016 -0.10272005945444107 -0.0034995982423424725
0.0028234992641955614 -0.10433796048164368 -0.003701771842315793
0.0028637030627578497 -0.10587938129901885 -0.003906341269612312
0.0029035976622253656 -0.10734540969133377 -0.0041008153930306435
0.0029423937667161226 -0.10873721539974211 -0.004271937534213066
0.0029791651759296656 -0.11005552858114244 -0.00441127922385931
0.0030129586812108755 -0.1113002598285675 -0.004519875627011061
0.003042890690267086 -0.11247045546770097 -0.004608674440532923
0.003068230813369155 -0.11356449127197266 -0.004696155898272991
0.0030884635634720325 -0.1145803779363632 -0.004805149044841528
0.0031033288687467575 -0.11551564186811447 -0.00496383523568511
0.003112840000540018 -0.11636724323034285 -0.005207027308642864
0.0031172798480838537 -0.11713207513093948 -0.005570246838033199
0.0031171797309070826 -0.11780778318643569 -0.006080295890569687
0.0031132809817790985 -0.11839356273412704 -0.006746564991772175
0.0031064841896295547 -0.11889057606458664 -0.007555550429970026
0.0030977895949035883 -0.11930213123559952 -0.008469630032777786
0.003088234690949321 -0.11963335424661638 -0.009430122561752796

CELLS 50 150
2 0 1
2 1 2
2 2 3
2 3 4
2 4 5
2 5 6
2 6 7
2 7 8
2 8 9
2 9 10
2 10 11
2 11 12
2 12 13
2 13 14
2 14 15
2 15 16
2 16 17
2 17 18
2 18 19
2 19 20
2 20 21
2 21 22
2 22 23
2 23 24
2 24 25
2 25 26
2 26 27
2 27 28
2 28 29
2 29 30
2 30 31
2 31 32
2 32 33
2 33 34
2 34 35
2 35 36
2 36 37
2 37 38
2 38 39
2 39 40
2 40 41
2 41 42
2 42 43
2 43 44
2 44 45
2 45 46
2 46 47
2 47 48
2 48 49
2 49 50

CELL_TYPES 50
4
4
4
4
4
4
4
4
4
4
4
4
4
4
4
4
4
4
4
4
4
4
4
4
4
4
4
4
4
4
4
4
4
4
4
4
4
4
4
4
4
4
4
4
4
4
4
4
4
4

POINT_DATA 51

SCALARS zone float
LOOKUP_TABLE default
1.0
1.0
1.0
1.0
1.0
1.0
1.0
1.0
1.0
1.0
1.0
1.0
1.0
1.0
1.0
1.0
1.0
1.0
1.0
1.0
1.0
1.0
1.0
1.0
1.0
1.0
1.0
1.0
1.0
1.0
1.0
1.0
1.0
1.0
1.0
1.0
1.0
1.0
1.0
1.0
1.0
1.0
1.0
1.0
1.0
1.0
1.0
1.0
1.0
1.0
1.0

VECTORS normals float
-0.00018154516874346882 -0.002060249913483858 -0.00018304676632396877
-0.00031745340675115585 -0.004099074751138687 -0.0001750954397721216
-0.0003203890810254961 -0.004045612644404173 8.561279537389055e-5
-0.00042105361353605986 -0.003980571869760752 0.00021397440286818892
-0.0004630943294614554 -0.0039054858498275276 0.00022751663345843556
-0.00036171305691823363 -0.003806282300502062 -3.460271909716539e-5
-0.0001455355522921309 -0.0037018780130892996 -0.00035616764216683805
7.072663720464334e-5 -0.0036226166412234306 -0.00039034822839312255
0.00020198317361064258 -0.0035472961608320475 -0.00037948580575175583
0.00024425858282484114 -0.0034651265013962984 -0.0004469072155188769
0.0002273943391628563 -0.0033933569211512804 -0.000395456503611058
0.00017962048877961934 -0.0033239759504795074 -0.00031670581665821373
0.0001230136549565941 -0.0032473073806613684 -0.00032124901190400124
7.320909935515374e-5 -0.003167183604091406 -0.0003652877057902515
3.8772002881160006e-5 -0.0030898358672857285 -0.0003775956865865737
2.1685751562472433e-5 -0.003017180133610964 -0.00033627398079261184
1.9110158973489888e-5 -0.002947273664176464 -0.0002635274431668222
2.5710261979838833e-5 -0.002876319456845522 -0.00020275682618375865
3.630685023381375e-5 -0.002801597351208329 -0.00018505394109524786
4.732568413601257e-5 -0.002723190700635314 -0.00020946639415342358
5.6640183174749836e-5 -0.002643277170136571 -0.0002511011844035238
6.314866186585277e-5 -0.002564201597124338 -0.00028315780218690634
6.649269198533148e-5 -0.0024870403576642275 -0.0002933342184405774
6.683685205643997e-5 -0.0024116854183375835 -0.00028286289307288826
6.468839274020866e-5 -0.002337557729333639 -0.0002583657915238291
6.0754482547054074e-5 -0.0022640360984951258 -0.00022694221115671096
5.583223173744046e-5 -0.002190555213019252 -0.00019505021919030696
5.072306885267608e-5 -0.00211663031950593 -0.00016823524492792785
4.616025398718193e-5 -0.0020418765489012003 -0.0001508952846052125
4.268924021744169e-5 -0.0019660783000290394 -0.000145490063005127
4.052436997881159e-5 -0.0018892880761995912 -0.00015142686606850475
3.9547361666336656e-5 -0.0018118078587576747 -0.00016524846432730556
3.943082629120909e-5 -0.0017340740887448194 -0.00018196972087025642
3.97539661207702e-5 -0.0016565513797104359 -0.00019627688743639737
4.0087012166623026e-5 -0.0015796597581356764 -0.00020337160094641146
4.004923903266899e-5 -0.0015037256525829434 -0.00019952174625359476
3.934526102966629e-5 -0.001428917865268886 -0.00018279795767739415
3.778377140406519e-5 -0.0013550586299970746 -0.00015523201727773994
3.528250090312213e-5 -0.0012815227964892983 -0.00012396922102198005
3.186270623700693e-5 -0.0012074628612026572 -9.86974555416964e-5
2.7636049708235078e-5 -0.0011321156052872539 -8.813999011181295e-5
2.2786460249335505e-5 -0.001054961234331131 -9.823746950132772e-5
1.7549085896462202e-5 -0.0009755754726938902 -0.0001338397414656356
1.21881839731941e-5 -0.0008934341021813452 -0.0002009389863815159
6.97543964633951e-6 -0.0008082159911282361 -0.0003032058011740446
2.169919071093318e-6 -0.0007202715496532619 -0.0004366342327557504
-1.999401547436719e-6 -0.0006307439180091023 -0.0005881591350771487
-5.347871592675801e-6 -0.0005413962062448263 -0.0007376272697001696
-7.745714356133249e-6 -0.000454284978331998 -0.0008615325205028058
-9.124661119130906e-6 -0.0003713864425662905 -0.000937286182306707
-4.777432877745014e-6 -0.00016561034135520458 -0.00048024620627984405

CELL_DATA 50

VECTORS liftinglineloading               float
0.0914386734366417 0.016547340899705887 -0.09384462982416153
0.1129666343331337 0.0238142479211092 -0.13505731523036957
-0.02839246019721031 0.007909671403467655 -0.04485797509551048
0.1435801386833191 0.01584685407578945 -0.08987197279930115
-0.035263337194919586 0.031060971319675442 -0.17615552246570587
-0.7979564666748047 0.07477468252182007 -0.4240683019161224
-1.8324649333953857 0.13541379570960999 -0.7679697871208191
-3.006039619445801 0.18849028646945953 -1.0689815282821655
-4.460448265075684 0.24619473516941068 -1.3962396383285522
-5.732481479644775 0.29013919830322266 -1.6454612016677854
-6.704766273498535 0.3159855604171753 -1.7920430898666382
-7.512043952941894 0.3366042971611023 -1.908977746963501
-8.07518482208252 0.34448397159576416 -1.953665614128113
-7.7260308265686035 0.3204839527606964 -1.8175548315048218
-7.710056781768798 0.3041324317455292 -1.7248207330703735
-7.851458072662353 0.2943621575832367 -1.6694108247756958
-7.8061981201171875 0.281281977891922 -1.5952293872833252
-8.061371803283691 0.2763042747974396 -1.5669994354248047
-8.231354713439941 0.2717505395412445 -1.5411739349365234
-8.437917709350586 0.27085554599761963 -1.5360981225967407
-8.820924758911133 0.2697541415691376 -1.5298516750335693
-9.114897727966309 0.2608284056186676 -1.4792314767837524
-9.174604415893555 0.2513086497783661 -1.4252421855926514
-9.375626564025879 0.24667848646640778 -1.3989832401275635
-9.586763381958008 0.24105091392993924 -1.3670676946640015
-9.910690307617188 0.23671565949916837 -1.342481255531311
-10.245365142822266 0.23146679997444153 -1.312713384628296
-10.551088333129883 0.22439047694206238 -1.272581696510315
-10.888981819152832 0.21696630120277405 -1.230476975440979
-11.244014739990234 0.20901155471801758 -1.1853634119033813
-11.38872241973877 0.19954100251197815 -1.1316531896591187
-11.950376510620117 0.19458453357219696 -1.103543758392334
-12.007343292236328 0.1833391785621643 -1.039768099784851
-12.045744895935059 0.1758156567811966 -0.9971001744270325
-12.172394752502441 0.16860567033290863 -0.9562103152275085
-12.109749794006348 0.1629990190267563 -0.9244133830070497
-11.999543190002441 0.15998604893684387 -0.9073259234428406
-11.842578887939453 0.15762603282928467 -0.8939416408538818
-11.645217895507812 0.15389040112495422 -0.8727558255195619
-11.25801944732666 0.15025344491004944 -0.8521296381950377
-10.952817916870117 0.14603513479232788 -0.8282064199447632
-10.30225944519043 0.14120493829250336 -0.8008130192756653
-9.310737609863281 0.15975622832775116 -0.9060225486755371
-7.985182285308838 0.171331986784935 -0.971671998500824
-6.889322280883789 0.20208120346069336 -1.1460593938827515
-5.768683910369873 0.21309034526348114 -1.2084953784942627
-4.92763090133667 0.22017490863800046 -1.248673915863037
-3.981740474700928 0.22830919921398163 -1.2948057651519775
-3.0532302856445312 0.23295071721076965 -1.3211290836334229
-1.664059638977051 0.24328237771987915 -1.3797229528427124