# vtk DataFile Version 4.0
 
ASCII
DATASET UNSTRUCTURED_GRID
POINTS 51 float
0.0029719590675085783 0.00756494514644146 -0.0006228691199794412
0.002608868759125471 0.011144667863845825 0.0014503228012472391
0.0023370522540062666 0.014846994541585445 0.0031591991428285837
0.0019680906552821398 0.018550172448158264 0.004714639391750097
0.0014949451433494687 0.02224309928715229 0.006135870702564716
0.001041901996359229 0.025821620598435402 0.007603298407047987
0.0007715190295130014 0.029113179072737694 0.00941580068320036
0.0007508308626711369 0.03223065659403801 0.011377856135368347
0.0009129723184742035 0.03534965589642525 0.013185320422053337
0.0011547972681000829 0.03833978623151779 0.015064021572470667
0.0014014894841238856 0.04125285521149635 0.016924243420362473
0.0016095859464257958 0.044156383723020554 0.018649021163582802
0.0017607304034754632 0.04701025411486626 0.02030785381793976
0.0018556131981313229 0.04977097362279892 0.021976064890623093
0.0019071486312896013 0.052442386746406555 0.023646999150514603
0.0019331572111696005 0.05505250021815299 0.025272144004702568
0.0019505200907588003 0.05762714147567749 0.026806766167283058
0.0019713775254786015 0.060172032564878464 0.028240960091352463
0.002001940505579114 0.06266942620277405 0.029605455696582798
0.0020439913496375084 0.06509383767843246 0.030944405123591423
0.0020965919829905033 0.06742847710847855 0.0322868786752224
0.002157271606847644 0.0696728378534317 0.033633749932050705
0.0022228893358260393 0.07183705270290375 0.03496749326586723
0.0022902570199221373 0.0739329531788826 0.036267589777708054
0.0023565629962831736 0.07596942037343979 0.03751865774393082
0.0024196337908506393 0.07795166224241257 0.03871169686317444
0.002478071954101324 0.07988142967224121 0.039843663573265076
0.002531298203393817 0.08175743371248245 0.04091678559780121
0.0025795181281864643 0.08357586711645126 0.04193766042590141
0.0026236188132315874 0.085331030189991 0.04291616752743721
0.002664896659553051 0.08701664209365845 0.04386318102478981
0.002704667393118143 0.08862759172916412 0.04478754103183746
0.0027439913246780634 0.09016107767820358 0.04569412022829056
0.0027835292275995016 0.09161699563264847 0.046583086252212524
0.0028234992641955614 0.09299787133932114 0.047450073063373566
0.0028637030627578497 0.09430841356515884 0.048286907374858856
0.0029035976622253656 0.0955549031496048 0.04908272996544838
0.0029423937667161226 0.09674398601055145 0.04982602223753929
0.0029791651759296656 0.09787989407777786 0.05050945281982422
0.0030129586812108755 0.09896211326122284 0.05113391950726509
0.003042890690267086 0.09998513758182526 0.05170894414186478
0.003068230813369155 0.10093969851732254 0.052250590175390244
0.0030884635634720325 0.10181434452533723 0.0527787022292614
0.0031033288687467575 0.10259491950273514 0.053317781537771225
0.003112840000540018 0.10326395183801652 0.05389809235930442
0.0031172798480838537 0.1038036197423935 0.05455050989985466
0.0031171797309070826 0.10420046746730804 0.0552983395755291
0.0031132809817790985 0.10444978624582292 0.05614974722266197
0.0031064841896295547 0.1045583412051201 0.057092983275651925
0.0030977895949035883 0.1045450270175934 0.05809535086154938
0.003088234690949321 0.10443929582834245 0.05910583212971687

CELLS 50 150
2 0 1
2 1 2
2 2 3
2 3 4
2 4 5
2 5 6
2 6 7
2 7 8
2 8 9
2 9 10
2 10 11
2 11 12
2 12 13
2 13 14
2 14 15
2 15 16
2 16 17
2 17 18
2 18 19
2 19 20
2 20 21
2 21 22
2 22 23
2 23 24
2 24 25
2 25 26
2 26 27
2 27 28
2 28 29
2 29 30
2 30 31
2 31 32
2 32 33
2 33 34
2 34 35
2 35 36
2 36 37
2 37 38
2 38 39
2 39 40
2 40 41
2 41 42
2 42 43
2 43 44
2 44 45
2 45 46
2 46 47
2 47 48
2 48 49
2 49 50

CELL_TYPES 50
4
4
4
4
4
4
4
4
4
4
4
4
4
4
4
4
4
4
4
4
4
4
4
4
4
4
4
4
4
4
4
4
4
4
4
4
4
4
4
4
4
4
4
4
4
4
4
4
4
4

POINT_DATA 51

SCALARS zone float
LOOKUP_TABLE default
1.0
1.0
1.0
1.0
1.0
1.0
1.0
1.0
1.0
1.0
1.0
1.0
1.0
1.0
1.0
1.0
1.0
1.0
1.0
1.0
1.0
1.0
1.0
1.0
1.0
1.0
1.0
1.0
1.0
1.0
1.0
1.0
1.0
1.0
1.0
1.0
1.0
1.0
1.0
1.0
1.0
1.0
1.0
1.0
1.0
1.0
1.0
1.0
1.0
1.0
1.0

VECTORS normals float
-0.00018154516874346882 0.0017898617079481483 0.0010365959024056792
-0.00031745340675115585 0.003641024697571993 0.0018910340731963515
-0.0003203890810254961 0.003702751826494932 0.001632158295251429
-0.00042105361353605986 0.0036980528384447098 0.0014883356634527445
-0.0004630943294614554 0.0036357247736305 0.0014443295076489449
-0.00036171305691823363 0.003435039659962058 0.0016399651067331435
-0.0001455355522921309 0.0032045179978013043 0.0018872787477448585
7.072663720464334e-5 0.003118237480521202 0.0018847596365958452
0.00020198317361064258 0.0030545645859092474 0.0018430830677971244
0.00024425858282484114 0.0029516001231968403 0.0018694612663239238
0.0002273943391628563 0.002908298745751381 0.0017924999119713902
0.00017962048877961934 0.0028786994516849518 0.0016918058972805738
0.0001230136549565941 0.002807294251397252 0.0016635218635201454
7.320909935515374e-5 0.002716065850108862 0.001669572782702744
3.8772002881160006e-5 0.0026407635305076838 0.0016480389749631286
2.1685751562472433e-5 0.002592378295958042 0.0015798831591382623
1.9110158973489888e-5 0.002559765474870801 0.0014844086254015565
2.5710261979838833e-5 0.0025211418978869915 0.0013993452303111553
3.630685023381375e-5 0.0024609023239463568 0.0013517220504581928
4.732568413601257e-5 0.0023795245215296745 0.0013407111400738358
5.6640183174749836e-5 0.0022895026486366987 0.0013446721713989973
6.314866186585277e-5 0.002204288262873888 0.0013403064804151654
6.649269198533148e-5 0.0021300555672496557 0.0013169196899980307
6.683685205643997e-5 0.002066186396405101 0.0012755831703543663
6.468839274020866e-5 0.002009356627240777 0.0012220535427331924
6.0754482547054074e-5 0.001956003485247493 0.0011625024490058422
5.583223173744046e-5 0.001902885502204299 0.0011025442508980632
5.072306885267608e-5 0.0018472193041816354 0.001046999590471387
4.616025398718193e-5 0.0017867974238470197 0.0009996918961405754
4.268924021744169e-5 0.0017203853931277988 0.0009627594263292849
4.052436997881159e-5 0.0016482807695865631 0.0009356869850307703
3.9547361666336656e-5 0.0015722186071798205 0.0009154690778814255
3.943082629120909e-5 0.0014947010204195976 0.0008977719116955994
3.97539661207702e-5 0.0014183952007442713 0.0008779761265031993
4.0087012166623026e-5 0.0013457093155011535 0.0008519103284925222
4.004923903266899e-5 0.0012785167200490832 0.0008163300226442517
3.934526102966629e-5 0.0012177856406196952 0.0007695579552091658
3.778377140406519e-5 0.0011624962789937854 0.000713360495865345
3.528250090312213e-5 0.001109062461182475 0.0006539492169395089
3.186270623700693e-5 0.001052621635608375 0.0005997461266815662
2.7636049708235078e-5 0.0009887955384328961 0.0005583346937783062
2.2786460249335505e-5 0.0009146025986410679 0.0005348792765289545
1.7549085896462202e-5 0.0008276085136458279 0.0005335960304364562
1.21881839731941e-5 0.0007248058100230992 0.0005596941336989403
6.97543964633951e-6 0.0006043520988896489 0.0006163646467030048
2.169919071093318e-6 0.00046825813478790224 0.0007001249468885362
-1.999401547436719e-6 0.0003230813308618963 0.0007996171480044721
-5.347871592675801e-6 0.00017893683980219066 0.0008973212679848075
-7.745714356133249e-6 4.762263051816262e-5 0.0009728027507662773
-9.124661119130906e-6 -5.952382707619108e-5 0.0010064244270324707
-4.777432877745014e-6 -5.286687519401312e-5 0.0005052408669143915

CELL_DATA 50

VECTORS liftinglineloading               float
0.048472851514816284 -0.03687186539173126 0.052658483386039734
-0.015191088430583479 -0.0028406514320522547 0.004056870937347412
0.060744483023881905 -0.040809497237205505 0.05828200280666352
0.039886508136987686 -0.07166054099798203 0.1023418605327606
-0.32340389490127563 -0.15661582350730896 0.22367057204246518
-1.1199556589126587 -0.29348018765449524 0.41913315653800964
-2.166473150253296 -0.4622730016708374 0.6601942777633667
-3.3012974262237544 -0.6266311407089233 0.8949219584465028
-4.697506904602051 -0.8087203502655029 1.1549723148345947
-5.921438217163086 -0.9514425992965698 1.3588008880615234
-6.941260814666748 -1.0457199811935425 1.4934427738189697
-7.758616447448731 -1.1118595600128174 1.5879000425338745
-8.306199073791504 -1.1370700597763062 1.6239042282104492
-8.035502433776855 -1.0662097930908203 1.5227054357528687
-8.131725311279297 -1.0230376720428467 1.4610493183135986
-8.33724594116211 -0.9942505955696106 1.419937014579773
-8.382200241088867 -0.951928973197937 1.3594955205917358
-8.645557403564453 -0.9286528825759888 1.3262537717819214
-8.900425910949707 -0.9121232628822327 1.3026469945907593
-8.988590240478516 -0.9085203409194946 1.297501564025879
-9.344733238220215 -0.8999100327491761 1.2852046489715576
-9.615331649780273 -0.8691825866699219 1.2413214445114136
-9.62783432006836 -0.8349087834358215 1.192373275756836
-9.939897537231445 -0.8193786144256593 1.1701939105987549
-10.110688209533691 -0.7966489195823669 1.1377325057983398
-10.346711158752441 -0.7792369723320007 1.112865686416626
-10.657381057739258 -0.7598786354064941 1.085219144821167
-10.986047744750977 -0.7359634041786194 1.0510647296905518
-11.337888717651367 -0.7100555300712585 1.0140643119812012
-11.709939956665039 -0.6818059682846069 0.9737198352813721
-11.84381103515625 -0.6486912965774536 0.9264271855354309
-12.37949275970459 -0.6297924518585205 0.8994368314743042
-12.445761680603027 -0.5893202424049377 0.8416365385055542
-12.476594924926758 -0.5654056072235107 0.8074829578399658
-12.47010326385498 -0.5466454029083252 0.7806905508041382
-12.4234037399292 -0.5287922024726868 0.7551935315132141
-12.327452659606934 -0.5197451114654541 0.7422729134559631
-12.183440208435059 -0.5126481056213379 0.7321373224258423
-11.99887752532959 -0.5007364153862 0.7151257395744324
-11.60957145690918 -0.48972842097282404 0.6994046568870544
-11.305164337158203 -0.4765793979167938 0.6806259155273438
-10.64106559753418 -0.4637086391448974 0.6622445583343506
-9.619179725646973 -0.5265150666236877 0.751941442489624
-8.305171012878418 -0.5669540166854858 0.8096942901611328
-7.181735992431641 -0.672139585018158 0.9599148035049438
-6.037964344024658 -0.7102200388908386 1.0142992734909058
-5.1772236824035645 -0.7341194748878479 1.0484312772750854
-4.194549083709717 -0.7605690360069275 1.0862051248550415
-3.2413933277130127 -0.7764030694961548 1.1088184118270874
-1.787642240524292 -0.8107995986938477 1.1579418182373047