# vtk DataFile Version 4.0
 
ASCII
DATASET UNSTRUCTURED_GRID
POINTS 51 float
0.0029719590675085783 -0.0013563064858317375 0.007468386087566613
0.002608868759125471 -0.004285356495529413 0.010389551520347595
0.0023370522540062666 -0.006894236896187068 0.013523434288799761
0.0019680906552821398 -0.009355129674077034 0.016697851940989494
0.0014949451433494687 -0.011683734133839607 0.019897105172276497
0.001041901996359229 -0.014027349650859833 0.022973893210291862
0.0007715190295130014 -0.016630010679364204 0.02568418346345425
0.0007508308626711369 -0.019332073628902435 0.028187619522213936
0.0009129723184742035 -0.021885205060243607 0.03073253110051155
0.0011547972681000829 -0.024473795667290688 0.03313453495502472
0.0014014894841238856 -0.027024587616324428 0.03546687960624695
0.0016095859464257958 -0.029442084953188896 0.037825070321559906
0.0017607304034754632 -0.031783029437065125 0.04015235975384712
0.0018556131981313229 -0.034108925610780716 0.04238724336028099
0.0019071486312896013 -0.036414336413145065 0.044535160064697266
0.0019331572111696005 -0.03865965083241463 0.04663572087883949
0.0019505200907588003 -0.04080834984779358 0.048725441098213196
0.0019713775254786015 -0.04285234212875366 0.05081241950392723
0.002001940505579114 -0.04481671750545502 0.052871562540531165
0.0020439913496375084 -0.04673752561211586 0.054866816848516464
0.0020965919829905033 -0.04863850399851799 0.05677444487810135
0.002157271606847644 -0.050520364195108414 0.05859374254941941
0.0022228893358260393 -0.05236880108714104 0.06033901125192642
0.0022902570199221373 -0.05416705831885338 0.06202700361609459
0.0023565629962831736 -0.05590257421135903 0.06367028504610062
0.0024196337908506393 -0.05756800249218941 0.06527620553970337
0.002478071954101324 -0.05916085839271546 0.06684723496437073
0.002531298203393817 -0.060682959854602814 0.06838157773017883
0.0025795181281864643 -0.06213969737291337 0.06987382471561432
0.0026236188132315874 -0.06353913247585297 0.07131592184305191
0.002664896659553051 -0.06489014625549316 0.07269899547100067
0.002704667393118143 -0.06619995087385178 0.07401581108570099
0.0027439913246780634 -0.06747253239154816 0.0752624049782753
0.0027835292275995016 -0.06870802491903305 0.07643862813711166
0.0028234992641955614 -0.06990286707878113 0.0775480568408966
0.0028637030627578497 -0.07105038315057755 0.07859735935926437
0.0029035976622253656 -0.07214170694351196 0.0795954018831253
0.0029423937667161226 -0.07316742837429047 0.08055158704519272
0.0029791651759296656 -0.07412156462669373 0.08147191256284714
0.0030129586812108755 -0.07500485330820084 0.08235562592744827
0.003042890690267086 -0.07582506537437439 0.08319496363401413
0.003068230813369155 -0.07659531384706497 0.08397681266069412
0.0030884635634720325 -0.07733180373907089 0.08468496799468994
0.0031033288687467575 -0.07805453985929489 0.08529942482709885
0.003112840000540018 -0.07878823578357697 0.08579546958208084
0.0031172798480838537 -0.0795581042766571 0.08614788949489594
0.0031171797309070826 -0.08038315922021866 0.08633766323328018
0.0031132809817790985 -0.08127008378505707 0.08635812252759933
0.0031064841896295547 -0.0822092816233635 0.08621885627508163
0.0030977895949035883 -0.08317404240369797 0.08594655990600586
0.003088234690949321 -0.08412273228168488 0.08558289706707001

CELLS 50 150
2 0 1
2 1 2
2 2 3
2 3 4
2 4 5
2 5 6
2 6 7
2 7 8
2 8 9
2 9 10
2 10 11
2 11 12
2 12 13
2 13 14
2 14 15
2 15 16
2 16 17
2 17 18
2 18 19
2 19 20
2 20 21
2 21 22
2 22 23
2 23 24
2 24 25
2 25 26
2 26 27
2 27 28
2 28 29
2 29 30
2 30 31
2 31 32
2 32 33
2 33 34
2 34 35
2 35 36
2 36 37
2 37 38
2 38 39
2 39 40
2 40 41
2 41 42
2 42 43
2 43 44
2 44 45
2 45 46
2 46 47
2 47 48
2 48 49
2 49 50

CELL_TYPES 50
4
4
4
4
4
4
4
4
4
4
4
4
4
4
4
4
4
4
4
4
4
4
4
4
4
4
4
4
4
4
4
4
4
4
4
4
4
4
4
4
4
4
4
4
4
4
4
4
4
4

POINT_DATA 51

SCALARS zone float
LOOKUP_TABLE default
1.0
1.0
1.0
1.0
1.0
1.0
1.0
1.0
1.0
1.0
1.0
1.0
1.0
1.0
1.0
1.0
1.0
1.0
1.0
1.0
1.0
1.0
1.0
1.0
1.0
1.0
1.0
1.0
1.0
1.0
1.0
1.0
1.0
1.0
1.0
1.0
1.0
1.0
1.0
1.0
1.0
1.0
1.0
1.0
1.0
1.0
1.0
1.0
1.0
1.0
1.0

VECTORS normals float
-0.00018154516874346882 -0.0014645251212641597 0.0014605828328058124
-0.00031745340675115585 -0.0027689652051776648 0.0030275241006165743
-0.0003203890810254961 -0.0025348865892738104 0.003154149977490306
-0.00042105361353605986 -0.0023947483859956264 0.00318683497607708
-0.0004630943294614554 -0.0023361099883913994 0.003138020634651184
-0.00036171305691823363 -0.0024731382727622986 0.002893539145588875
-0.0001455355522921309 -0.002652361523360014 0.002606862923130393
7.072663720464334e-5 -0.002627597190439701 0.002524174517020583
0.00020198317361064258 -0.002570861019194126 0.0024734577164053917
0.00024425858282484114 -0.002569691278040409 0.0023671744856983423
0.0002273943391628563 -0.0024841451086103916 0.0023452676832675934
0.00017962048877961934 -0.0023792211432009935 0.002342738676816225
0.0001230136549565941 -0.0023334200959652662 0.0022810869850218296
7.320909935515374e-5 -0.002315653022378683 0.0021914010867476463
3.8772002881160006e-5 -0.0022753633093088865 0.0021242378279566765
2.1685751562472433e-5 -0.002197006717324257 0.002095141215249896
1.9110158973489888e-5 -0.002096344716846943 0.0020883504766970873
2.5710261979838833e-5 -0.0020041833631694317 0.0020730590913444757
3.630685023381375e-5 -0.0019425916252657771 0.002027197740972042
4.732568413601257e-5 -0.0019108937121927736 0.001951442565768957
5.6640183174749836e-5 -0.001891420455649495 0.001863462966866791
6.314866186585277e-5 -0.0018651484278962018 0.0017822820227593184
6.649269198533148e-5 -0.0018233457813039422 0.0017166318139061334
6.683685205643997e-5 -0.0017668871441856027 0.0016656374791637063
6.468839274020866e-5 -0.0017004727851599455 0.0016245987499132752
6.0754482547054074e-5 -0.001629142090678215 0.001588476588949561
5.583223173744046e-5 -0.0015574789140373468 0.001552686793729663
5.072306885267608e-5 -0.0014894193736836314 0.001513293362222612
4.616025398718193e-5 -0.0014280853793025017 0.001467174501158297
4.268924021744169e-5 -0.0013752226950600743 0.001412584213539958
4.052436997881159e-5 -0.0013304107123985887 0.001349943340755999
3.9547361666336656e-5 -0.001291195279918611 0.0012817056849598885
3.943082629120909e-5 -0.0012540381867438555 0.0012114099226891994
3.97539661207702e-5 -0.0012151675764471292 0.001142827677540481
4.0087012166623026e-5 -0.00117117736954242 0.0010793647961691022
4.004923903266899e-5 -0.0011194187682121992 0.0010236705420538783
3.934526102966629e-5 -0.0010585220297798514 0.0009771143086254597
3.778377140406519e-5 -0.0009899295400828123 0.0009382538846693933
3.528250090312213e-5 -0.0009187128744088112 0.0009020175202749671
3.186270623700693e-5 -0.0008517488022334873 0.0008615286787971854
2.7636049708235078e-5 -0.0007952289888635277 0.0008105955203063786
2.2786460249335505e-5 -0.0007533702882938087 0.0007450013654306531
1.7549085896462202e-5 -0.0007296149851754308 0.0006613036384806037
1.21881839731941e-5 -0.0007282165461219847 0.0005552491638809443
6.97543964633951e-6 -0.0007517803460359573 0.0004242324212100357
2.169919071093318e-6 -0.0007974628824740647 0.00027109694201499224
-1.999401547436719e-6 -0.0008559904526919127 0.00010511645086808132
-5.347871592675801e-6 -0.0009130580583587289 -5.940411574556492e-5
-7.745714356133249e-6 -0.0009519809391349553 -0.00020577995746862143
-9.124661119130906e-6 -0.0009567254455760121 -0.00031797742121852934
-4.777432877745014e-6 -0.0004743422323372215 -0.00018183143401984125

CELL_DATA 50

VECTORS liftinglineloading               float
0.03855101019144058 -0.03561616688966751 -0.04244569316506386
-0.014656204730272291 -0.0035974367056041956 -0.004287258256226778
0.05587336793541908 -0.0524379424750805 -0.06249310448765755
-0.01823960430920124 -0.09128716588020325 -0.10879180580377579
-0.4786835610866547 -0.2034831494092941 -0.24250176548957827
-1.2693227529525757 -0.3512861430644989 -0.418646514415741
-2.3373613357543945 -0.530301570892334 -0.6319887638092041
-3.479073047637939 -0.7131848335266113 -0.8499405980110167
-4.881588935852051 -0.9156695008277893 -1.0912524461746216
-6.1357927322387695 -1.0778744220733643 -1.2845606803894043
-7.140777111053467 -1.1863030195236206 -1.413780927658081
-7.95899772644043 -1.2567050457000732 -1.497682809829712
-8.354778289794922 -1.2776871919631958 -1.522688388824463
-8.111334800720215 -1.2000237703323364 -1.4301326274871826
-8.224379539489746 -1.1531336307525635 -1.3742512464523315
-8.428539276123047 -1.1206326484680176 -1.3355180025100708
-8.46660041809082 -1.072212815284729 -1.27781343460083
-8.708603858947754 -1.0444612503051758 -1.2447404861450195
-8.901494979858398 -1.0244991779327393 -1.2209506034851074
-8.942594528198242 -1.0185662508010864 -1.213879942893982
-9.410518646240234 -1.0119460821151733 -1.2059904336929321
-9.678126335144043 -0.9769837856292723 -1.1643239259719849
-9.64487361907959 -0.9374309778213501 -1.1171867847442627
-9.748360633850098 -0.9165347218513489 -1.0922836065292358
-9.860300064086914 -0.8922210931777953 -1.063307762145996
-10.045700073242188 -0.8743119239807129 -1.0419644117355347
-10.29935073852539 -0.8546339869499208 -1.0185130834579468
-10.54561710357666 -0.8289238214492797 -0.9878728985786437
-10.838839530944824 -0.8019903302192688 -0.9557748436927795
-11.169571876525879 -0.7731574177742004 -0.9214131832122803
-11.338149070739746 -0.7368806004524231 -0.8781800866127014
-11.907617568969727 -0.7187103033065796 -0.8565255999565125
-11.980243682861328 -0.6769453883171082 -0.80675208568573
-12.036995887756348 -0.6487135291099548 -0.7731066942214966
-12.326239585876465 -0.6173837780952454 -0.7357693314552307
-12.29713249206543 -0.5963121652603149 -0.7106571793556213
-12.216291427612305 -0.5852572321891785 -0.6974824070930481
-12.084305763244629 -0.5766748785972595 -0.6872543692588806
-11.908175468444824 -0.5629347562789917 -0.6708795428276062
-11.52689266204834 -0.550179123878479 -0.6556779742240906
-11.225893020629883 -0.5351843237876892 -0.6378078460693359
-10.564839363098145 -0.5200384855270386 -0.6197577118873596
-9.546656608581543 -0.5900524258613586 -0.7031970620155334
-8.207087516784668 -0.6346587538719177 -0.7563568353652954
-7.091315746307373 -0.7514155507087708 -0.8955021500587463
-5.951772212982178 -0.7935197949409485 -0.94568008184433
-5.0925188064575195 -0.8200573325157166 -0.9773063063621521
-4.111294269561768 -0.8494277000427246 -1.0123084783554077
-3.173583745956421 -0.8673084378242493 -1.0336179733276367
-1.739123821258545 -0.9056355357170105 -1.0792944431304932