# vtk DataFile Version 4.0
 
ASCII
DATASET UNSTRUCTURED_GRID
POINTS 51 float
0.0029719590675085783 -0.0025595971383154392 -0.007145965471863747
0.002608868759125471 -0.0014835481997579336 -0.011140294373035431
0.0023370522540062666 -0.0007911329157650471 -0.015158756636083126
0.0019680906552821398 -0.0002471459738444537 -0.019138328731060028
0.0014949451433494687 0.0001698579144431278 -0.023073265329003334
0.001041901996359229 0.0006610946729779243 -0.02690964937210083
0.0007715190295130014 0.001559919910505414 -0.0305581595748663
0.0007508308626711369 0.0026482567191123962 -0.0340772308409214
0.0009129723184742035 0.0035868773702532053 -0.037557754665613174
0.0011547972681000829 0.004627660848200321 -0.040932245552539825
0.0014014894841238856 0.005670538637787104 -0.044227514415979385
0.0016095859464257958 0.006585058756172656 -0.047478511929512024
0.0017607304034754632 0.007448731921613216 -0.05066447705030441
0.0018556131981313229 0.008345574140548706 -0.05376289039850236
0.0019071486312896013 0.009268159978091717 -0.05677574872970581
0.0019331572111696005 0.010162380523979664 -0.05971754342317581
0.0019505200907588003 0.01097834575921297 -0.06260164827108383
0.0019713775254786015 0.011705005541443825 -0.06543101370334625
0.002001940505579114 0.012376634404063225 -0.06819647550582886
0.0020439913496375084 0.013042476028203962 -0.0708848163485527
0.0020965919829905033 0.01373495627194643 -0.07348736375570297
0.002157271606847644 0.01445504929870367 -0.07600384950637817
0.0022228893358260393 0.015183206647634506 -0.07843951880931854
0.0022902570199221373 0.015896543860435486 -0.08080048859119415
0.0023565629962831736 0.016577906906604767 -0.0830913707613945
0.0024196337908506393 0.017217250540852547 -0.08531484752893448
0.002478071954101324 0.017811186611652374 -0.08747183531522751
0.002531298203393817 0.018362196162343025 -0.08956166356801987
0.0025795181281864643 0.01887764409184456 -0.09158235788345337
0.0026236188132315874 0.01936853863298893 -0.09353096783161163
0.002664896659553051 0.019847014918923378 -0.0954042449593544
0.002704667393118143 0.020322933793067932 -0.09719955176115036
0.0027439913246780634 0.0208017248660326 -0.09891542047262192
0.0027835292275995016 0.021283581852912903 -0.10055181384086609
0.0028234992641955614 0.021763630211353302 -0.10211002081632613
0.0028637030627578497 0.02223275601863861 -0.10359250009059906
0.0029035976622253656 0.02267885021865368 -0.1050024926662445
0.0029423937667161226 0.023089056834578514 -0.10634343326091768
0.0029791651759296656 0.02345520444214344 -0.10761752724647522
0.0030129586812108755 0.023778295144438744 -0.10882449150085449
0.003042890690267086 0.02406894788146019 -0.10996148735284805
0.003068230813369155 0.024345077574253082 -0.11102370917797089
0.0030884635634720325 0.02462882176041603 -0.11200523376464844
0.0031033288687467575 0.024947503581643105 -0.11289873719215393
0.003112840000540018 0.025334879755973816 -0.1136951744556427
0.0031172798480838537 0.025825392454862598 -0.11438531428575516
0.0031171797309070826 0.02644502930343151 -0.11496219038963316
0.0031132809817790985 0.027202894911170006 -0.11542336642742157
0.0031064841896295547 0.02808589674532413 -0.11577235907316208
0.0030977895949035883 0.02905755490064621 -0.11601892858743668
0.003088234690949321 0.030060971155762672 -0.11617832630872728

CELLS 50 150
2 0 1
2 1 2
2 2 3
2 3 4
2 4 5
2 5 6
2 6 7
2 7 8
2 8 9
2 9 10
2 10 11
2 11 12
2 12 13
2 13 14
2 14 15
2 15 16
2 16 17
2 17 18
2 18 19
2 19 20
2 20 21
2 21 22
2 22 23
2 23 24
2 24 25
2 25 26
2 26 27
2 27 28
2 28 29
2 29 30
2 30 31
2 31 32
2 32 33
2 33 34
2 34 35
2 35 36
2 36 37
2 37 38
2 38 39
2 39 40
2 40 41
2 41 42
2 42 43
2 43 44
2 44 45
2 45 46
2 46 47
2 47 48
2 48 49
2 49 50

CELL_TYPES 50
4
4
4
4
4
4
4
4
4
4
4
4
4
4
4
4
4
4
4
4
4
4
4
4
4
4
4
4
4
4
4
4
4
4
4
4
4
4
4
4
4
4
4
4
4
4
4
4
4
4

POINT_DATA 51

SCALARS zone float
LOOKUP_TABLE default
1.0
1.0
1.0
1.0
1.0
1.0
1.0
1.0
1.0
1.0
1.0
1.0
1.0
1.0
1.0
1.0
1.0
1.0
1.0
1.0
1.0
1.0
1.0
1.0
1.0
1.0
1.0
1.0
1.0
1.0
1.0
1.0
1.0
1.0
1.0
1.0
1.0
1.0
1.0
1.0
1.0
1.0
1.0
1.0
1.0
1.0
1.0
1.0
1.0
1.0
1.0

VECTORS normals float
-0.00018154516874346882 0.0005380245274864137 -0.001997164450585842
-0.00031745340675115585 0.0008842321694828569 -0.00400639558210969
-0.0003203890810254961 0.0006182010984048247 -0.003999017179012299
-0.00042105361353605986 0.00048049539327621465 -0.003957254346460104
-0.0004630943294614554 0.00045412033796310425 -0.0038856605533510447
-0.00036171305691823363 0.0006950310198590159 -0.0037424475885927673
-0.0001455355522921309 0.000993581023067236 -0.0035837905015796427
7.072663720464334e-5 0.0010134787298738956 -0.0034997977782040834
0.00020198317361064258 0.0009897020645439625 -0.003427507821470499
0.00024425858282484114 0.0010418306337669492 -0.0033348789438605313
0.0002273943391628563 0.000978698837570846 -0.0032731338869780306
0.00017962048877961934 0.0008890967001207173 -0.0032184817828238015
0.0001230136549565941 0.0008802575175650418 -0.003142189234495163
7.320909935515374e-5 0.0009097138536162674 -0.0030556353740394115
3.8772002881160006e-5 0.0009084035409614445 -0.0029773255810141563
2.1685751562472433e-5 0.0008550930651836097 -0.0029129490721970797
1.9110158973489888e-5 0.0007713125669397414 -0.0028567370027303696
2.5710261979838833e-5 0.0006991441478021443 -0.002797413384541869
3.630685023381375e-5 0.0006687348359264433 -0.002726900391280651
4.732568413601257e-5 0.0006791612249799073 -0.002645445754751563
5.6640183174749836e-5 0.0007062866352498531 -0.002559516578912735
6.314866186585277e-5 0.0007241248968057334 -0.002476075664162636
6.649269198533148e-5 0.0007207478047348559 -0.0023983195424079895
6.683685205643997e-5 0.000697350362315774 -0.0023259278386831284
6.468839274020866e-5 0.0006603532820008695 -0.002257180167362094
6.0754482547054074e-5 0.0006166402017697692 -0.0021902320440858603
5.583223173744046e-5 0.0005724729271605611 -0.0021234056912362576
5.072306885267608e-5 0.0005332283908501267 -0.002055260119959712
4.616025398718193e-5 0.0005031709442846477 -0.001984653063118458
4.268924021744169e-5 0.0004846856754738838 -0.0019109451677650213
4.052436997881159e-5 0.0004771977837663144 -0.0018342905677855015
3.9547361666336656e-5 0.00047735508996993303 -0.001755587407387793
3.943082629120909e-5 0.0004803239717148245 -0.0016761308070272207
3.97539661207702e-5 0.00048095211968757207 -0.0015973015688359735
4.0087012166623026e-5 0.00047458696644753223 -0.0015203460352495313
4.004923903266899e-5 0.00045760977081954474 -0.0014462340623140335
3.934526102966629e-5 0.0004281498258933425 -0.0013754668179899454
3.778377140406519e-5 0.00038817714084871113 -0.0013075164752081037
3.528250090312213e-5 0.0003446199407335371 -0.0012405265588313341
3.186270623700693e-5 0.00030687174876220524 -0.0011719801696017385
2.7636049708235078e-5 0.00028339074924588203 -0.001099610817618668
2.2786460249335505e-5 0.00027993711410090327 -0.0010218751849606633
1.7549085896462202e-5 0.00030121332383714616 -0.0009375132503919302
1.21881839731941e-5 0.0003530294634401798 -0.0008449681336060167
6.97543964633951e-6 0.0004389446694403887 -0.0007432862184941769
2.169919071093318e-6 0.0005550745991058648 -0.0006335082580335438
-1.999401547436719e-6 0.0006887512281537056 -0.0005190287483856082
-5.347871592675801e-6 0.0008204335463233292 -0.00040508355596102774
-7.745714356133249e-6 0.0009273296454921364 -0.000297779799439013
-9.124661119130906e-6 0.0009875373216345906 -0.00020298620802350342
-4.777432877745014e-6 0.0005017081275582314 -7.970046863192692e-5

CELL_DATA 50

VECTORS liftinglineloading               float
0.062186289578676224 0.06940198689699173 0.025260256603360176
0.025791265070438385 0.04499233514070511 0.016375871375203133
0.03995058313012123 0.05468786880373955 0.01990475505590439
0.09887508302927017 0.10220242291688918 0.037198640406131744
-0.19909588992595673 0.22144407033920288 0.08059905469417572
-1.0132496356964111 0.45810276269912725 0.16673576831817627
-2.0752968788146973 0.7544653415679932 0.2746029198169708
-3.238548517227173 1.030994176864624 0.3752512037754059
-4.675290107727051 1.3368440866470337 0.4865714609622956
-5.957473278045654 1.5775583982467651 0.5741842985153198
-6.967364788055419 1.7307188510894773 0.6299301385879517
-7.776262283325196 1.8407021760940552 0.6699607968330383
-8.325719833374023 1.883452653884888 0.6855207085609436
-8.022191047668457 1.7621141672134402 0.6413570642471313
-8.0879545211792 1.6859920024871826 0.613650918006897
-8.285256385803223 1.637718677520752 0.5960808396339417
-8.31685733795166 1.568486213684082 0.570882260799408
-8.59304428100586 1.5341198444366455 0.5583739876747131
-8.779638290405273 1.5053116083145142 0.5478886365890503
-9.015290260314941 1.5056095123291016 0.5479970574378967
-9.377447128295898 1.4920364618301392 0.543056845664978
-9.643579483032227 1.4401590824127197 0.5241750478744507
-9.644174575805664 1.3827489614486694 0.503279447555542
-9.784382820129395 1.3525508642196655 0.49228826165199274
-9.930526733398438 1.3167998790740967 0.47927597165107727
-10.142756462097168 1.2897404432296753 0.4694271087646484
-10.416951179504395 1.2596739530563354 0.45848384499549866
-10.660422325134277 1.2206528186798096 0.4442813098430634
-10.976849555969238 1.179638147354126 0.42935314774513245
-11.316021919250488 1.1358431577682495 0.4134131073951721
-11.448439598083496 1.0838866233825684 0.3945024907588959
-12.003622055053711 1.0564370155334473 0.3845116198062897
-12.054794311523438 0.9948427677154541 0.36209315061569214
-12.087892532348633 0.9536325335502626 0.3470938503742218
-12.09422779083252 0.9196184873580933 0.33471375703811646
-12.047510147094727 0.8876188397407532 0.3230668604373932
-11.95134162902832 0.8699163198471069 0.31662365794181824
-11.806614875793457 0.8561061024665831 0.31159713864326477
-11.619974136352539 0.8351014256477356 0.30395206809043884
-11.211373329162598 0.8171653747558594 0.2974238693714142
-10.884742736816406 0.7942915558815002 0.28909847140312195
-10.214914321899414 0.7668728232383728 0.2791188955307007
-9.210732460021973 0.8665103912353516 0.3153839707374573
-7.867361068725586 0.9275655150413513 0.3376062512397766
-6.877719402313232 1.0935686826705933 0.3980264663696289
-5.743884563446045 1.1523160934448242 0.41940876841545105
-4.8927693367004395 1.189865231513977 0.43307551741600037
-3.9255106449127197 1.231684684753418 0.4482965767383575
-2.9978394508361816 1.2558629512786865 0.4570967555046082
-1.6250247955322266 1.3109161853790283 0.47713449597358704