# vtk DataFile Version 4.0
 
ASCII
DATASET UNSTRUCTURED_GRID
POINTS 51 float
0.0029719590675085783 0.004849298857152462 0.005839576944708824
0.002608868759125471 0.005204284097999334 0.009961049072444439
0.0023370522540062666 0.005928021855652332 0.01397398766130209
0.0019680906552821398 0.006777935195714235 0.017899617552757263
0.0014949451433494687 0.007731907069683075 0.02173987217247486
0.001041901996359229 0.008582415990531445 0.025512907654047012
0.0007715190295130014 0.008985660970211029 0.029248801991343498
0.0007508308626711369 0.009166551753878593 0.03292787820100784
0.0009129723184742035 0.00947494711726904 0.03651953116059303
0.0011547972681000829 0.009651074185967445 0.040046483278274536
0.0014014894841238856 0.009798137471079826 0.04349970817565918
0.0016095859464257958 0.010050676763057709 0.046867430210113525
0.0017607304034754632 0.010328752920031548 0.05015665292739868
0.0018556131981313229 0.010545718483626842 0.05337494611740112
0.0019071486312896013 0.010709227994084358 0.056521650403738015
0.0019331572111696005 0.010875088162720203 0.059591874480247504
0.0019505200907588003 0.011094753630459309 0.0625811219215393
0.0019713775254786015 0.01137961819767952 0.06548839062452316
0.002001940505579114 0.011694335378706455 0.06831678003072739
0.0020439913496375084 0.01198811735957861 0.07107073068618774
0.0020965919829905033 0.012227521277964115 0.07375316321849823
0.002157271606847644 0.012411545030772686 0.0763641744852066
0.0022228893358260393 0.012560347095131874 0.0789019986987114
0.0022902570199221373 0.01269752997905016 0.08136456459760666
0.0023565629962831736 0.012840786017477512 0.08375032991170883
0.0024196337908506393 0.013000473380088806 0.08605838567018509
0.002478071954101324 0.013180088251829149 0.08828842639923096
0.002531298203393817 0.013377071358263493 0.09044067561626434
0.0025795181281864643 0.013583827763795853 0.09251579642295837
0.0026236188132315874 0.013789001852273941 0.09451479464769363
0.002664896659553051 0.013980080373585226 0.09643874317407608
0.002704667393118143 0.014146892353892326 0.09828855097293854
0.0027439913246780634 0.01428383868187666 0.1000647023320198
0.0027835292275995016 0.014390719123184681 0.10176721215248107
0.0028234992641955614 0.014472562819719315 0.10339563339948653
0.0028637030627578497 0.014538765884935856 0.10494916141033173
0.0029035976622253656 0.014601820148527622 0.1064266934990883
0.0029423937667161226 0.01467498205602169 0.10782706737518309
0.0029791651759296656 0.014766679145395758 0.10914954543113708
0.0030129586812108755 0.014875878579914572 0.11039422452449799
0.003042890690267086 0.014991630800068378 0.1115620583295822
0.003068230813369155 0.015095456503331663 0.1126546710729599
0.0030884635634720325 0.015164525248110296 0.11367404460906982
0.0031033288687467575 0.015170657075941563 0.11462265998125076
0.003112840000540018 0.015079039148986341 0.11550355702638627
0.0031172798480838537 0.014854148961603643 0.11631983518600462
0.0031171797309070826 0.014469184912741184 0.11707385629415512
0.0031132809817790985 0.01391475647687912 0.11776642501354218
0.0031064841896295547 0.013204367831349375 0.11839637160301208
0.0030977895949035883 0.012375639751553535 0.11896040290594101
0.003088234690949321 0.011487255804240704 0.11945337802171707

CELLS 50 150
2 0 1
2 1 2
2 2 3
2 3 4
2 4 5
2 5 6
2 6 7
2 7 8
2 8 9
2 9 10
2 10 11
2 11 12
2 12 13
2 13 14
2 14 15
2 15 16
2 16 17
2 17 18
2 18 19
2 19 20
2 20 21
2 21 22
2 22 23
2 23 24
2 24 25
2 25 26
2 26 27
2 27 28
2 28 29
2 29 30
2 30 31
2 31 32
2 32 33
2 33 34
2 34 35
2 35 36
2 36 37
2 37 38
2 38 39
2 39 40
2 40 41
2 41 42
2 42 43
2 43 44
2 44 45
2 45 46
2 46 47
2 47 48
2 48 49
2 49 50

CELL_TYPES 50
4
4
4
4
4
4
4
4
4
4
4
4
4
4
4
4
4
4
4
4
4
4
4
4
4
4
4
4
4
4
4
4
4
4
4
4
4
4
4
4
4
4
4
4
4
4
4
4
4
4

POINT_DATA 51

SCALARS zone float
LOOKUP_TABLE default
1.0
1.0
1.0
1.0
1.0
1.0
1.0
1.0
1.0
1.0
1.0
1.0
1.0
1.0
1.0
1.0
1.0
1.0
1.0
1.0
1.0
1.0
1.0
1.0
1.0
1.0
1.0
1.0
1.0
1.0
1.0
1.0
1.0
1.0
1.0
1.0
1.0
1.0
1.0
1.0
1.0
1.0
1.0
1.0
1.0
1.0
1.0
1.0
1.0
1.0
1.0

VECTORS normals float
-0.00018154516874346882 0.00017749276594258845 0.0020607358310371637
-0.00031745340675115585 0.0005393614992499352 0.004067205358296633
-0.0003203890810254961 0.0007868254324421287 0.003969284240156412
-0.00042105361353605986 0.0009019427234306931 0.003882941789925099
-0.0004630943294614554 0.0009022406302392483 0.003806644817814231
-0.00036171305691823363 0.000626876950263977 0.003754465142264962
-0.0001455355522921309 0.00029206773615442216 0.0037074862048029895
7.072663720464334e-5 0.0002446428406983614 0.0036353643517941236
0.00020198317361064258 0.00024226095410995185 0.0035593018401414156
0.00024425858282484114 0.00016159522056113929 0.0034900882747024298
0.0002273943391628563 0.0001998016523430124 0.0034104746300727125
0.00017962048877961934 0.00026530801551416516 0.0033284726087003946
0.0001230136549565941 0.0002475205110386014 0.0032537579536437984
7.320909935515374e-5 0.00019023749337065965 0.003182498505339027
3.8772002881160006e-5 0.00016468520334456116 0.0031084632501006126
2.1685751562472433e-5 0.000192762614460662 0.0030297357589006424
1.9110158973489888e-5 0.00025226481375284493 0.0029482590034604073
2.5710261979838833e-5 0.0002997911360580474 0.0028678299859166145
3.630685023381375e-5 0.0003042497264686972 0.002791169099509716
4.732568413601257e-5 0.00026659294962882996 0.00271819275803864
5.6640183174749836e-5 0.00021171386470086873 0.002646723063662648
6.314866186585277e-5 0.00016641293768770993 0.002574415411800146
6.649269198533148e-5 0.00014299219765234739 0.002500193426385522
6.683685205643997e-5 0.00014021921379026026 0.002424165140837431
6.468839274020866e-5 0.00015147200610954314 0.002346909837797284
6.0754482547054074e-5 0.000169651277246885 0.0022690482437610626
5.583223173744046e-5 0.00018829895998351276 0.0021911459043622017
5.072306885267608e-5 0.0002018696250161156 0.0021136878058314323
4.616025398718193e-5 0.00020596527610905468 0.002037058351561427
4.268924021744169e-5 0.00019812618847936395 0.001961473375558853
4.052436997881159e-5 0.00017894509073812515 0.0018868804909288883
3.9547361666336656e-5 0.00015187916869763285 0.0018129775999113917
3.943082629120909e-5 0.00012191361020086333 0.0017393282614648342
3.97539661207702e-5 9.43621271289885e-5 0.0016654677456244824
4.0087012166623026e-5 7.402309711324051e-5 0.001590976258739829
4.004923903266899e-5 6.46286498522386e-5 0.001515527255833149
3.934526102966629e-5 6.810812919866294e-5 0.0014389519346877933
3.778377140406519e-5 8.242976036854088e-5 0.0013614279450848699
3.528250090312213e-5 0.00010044824739452451 0.0012835805537179112
3.186270623700693e-5 0.00011247570364503191 0.0012062573805451393
2.7636049708235078e-5 0.00010978885256918147 0.0011302215280011296
2.2786460249335505e-5 8.644706394989043e-5 0.0010559927904978395
1.7549085896462202e-5 3.760049366974272e-5 0.0009839952690526843
1.21881839731941e-5 -4.2743064113892615e-5 0.0009147535311058165
6.97543964633951e-6 -0.00015825420268811285 0.0008485884754918516
2.169919071093318e-6 -0.0003049269434995949 0.0007851497502997518
-1.999401547436719e-6 -0.00046969615505076945 0.0007232942734844983
-5.347871592675801e-6 -0.0006324085989035666 0.0006612588185817003
-7.745714356133249e-6 -0.0007695581298321486 0.0005969869089312851
-9.124661119130906e-6 -0.0008585561299696565 0.0005285022780299187
-4.777432877745014e-6 -0.00044419226469472056 0.0002464882272761315

CELL_DATA 50

VECTORS liftinglineloading               float
0.058090612292289734 -0.0710490420460701 2.6315656662988045e-16
0.01386570278555155 -0.03481964394450188 1.2896750277837586e-16
0.04641152173280716 -0.060211047530174255 2.2301400766338425e-16
0.08795461058616638 -0.11206478625535966 4.1507361978583373e-16
-0.21783305704593658 -0.2417108565568924 8.95266073765394e-16
-1.0244314670562744 -0.4902459681034088 1.8158084577098036e-15
-2.08027982711792 -0.803213357925415 2.974999515806915e-15
-3.24129319190979 -1.097183346748352 4.063826488184428e-15
-4.667398929595947 -1.4217246770858765 5.265886095500317e-15
-5.939947128295898 -1.677953839302063 6.214926373559505e-15
-6.942024230957031 -1.8400126695632935 6.815171612950055e-15
-7.753924369812012 -1.958358883857727 7.253510739637682e-15
-8.31560230255127 -2.0054991245269775 7.428111335121106e-15
-8.021964073181152 -1.8771722316741943 6.952805573032933e-15
-8.101963996887207 -1.7975609302520752 6.657935616401819e-15
-8.316619873046875 -1.747985363006592 6.474314120030137e-15
-8.367180824279785 -1.6757760047912595 6.206860078802803e-15
-8.664873123168945 -1.6399239301681519 6.074068182562904e-15
-8.898613929748535 -1.611478567123413 5.9687104129351525e-15
-9.073022842407227 -1.6094495058059692 5.961195113110638e-15
-9.481348037719727 -1.5965967178344727 5.913589743892578e-15
-9.792149543762207 -1.5426945686340332 5.713943231191792e-15
-9.828967094421387 -1.4816828966140747 5.487963734710291e-15
-9.998719215393066 -1.4487608671188354 5.366024871623562e-15
-10.16253662109375 -1.4084947109222412 5.216883968952235e-15
-10.389668464660645 -1.377435326576233 5.101844189220892e-15
-10.684735298156738 -1.3429570198059082 4.974140843411624e-15
-10.984748840332031 -1.3000755310058594 4.815313271955496e-15
-11.308043479919434 -1.2543162107467651 4.6458266378911206e-15
-11.649359703063965 -1.2051377296447754 4.463676014232346e-15
-11.759709358215332 -1.147647500038147 4.25073955458914e-15
-12.283344268798828 -1.1160485744476318 4.133701200618751e-15
-12.308070182800293 -1.0484825372695923 3.883444892835994e-15
-12.31672477722168 -1.0059294700622559 3.7258340842085975e-15
-12.299762725830078 -0.9712330102920532 3.597322668967649e-15
-12.42405891418457 -0.9313457012176513 3.4495852998899217e-15
-12.297553062438965 -0.915475070476532 3.390802483899894e-15
-12.124078750610352 -0.9029793739318848 3.3445201801454456e-15
-11.910367012023926 -0.8821391463279725 3.267330491178635e-15
-11.497254371643066 -0.8623870611190797 3.194171196733097e-15
-11.16891098022461 -0.8389624357223512 3.1074096119458384e-15
-10.487730026245117 -0.81372731924057 3.0139418555569317e-15
-9.458915710449219 -0.9219971299171449 3.4149594400391136e-15
-8.104331970214844 -0.9899566173553467 3.666672644491147e-15
-6.979434013366699 -1.1689271926879883 4.3295563938476264e-15
-5.831679344177246 -1.2323375940322876 4.5644208424293516e-15
-4.965604782104492 -1.2722434997558594 4.71222724469228e-15
-3.980748414993286 -1.316398024559021 4.875769401532825e-15
-3.034195899963379 -1.3414783477783203 4.968663928374677e-15
-1.6401029825210571 -1.3990812301635742 5.182017551744406e-15