# vtk DataFile Version 4.0
 
ASCII
DATASET UNSTRUCTURED_GRID
POINTS 51 float
0.0029719590675085783 -0.0006228691199794412 -0.00756494514644146
0.002608868759125471 0.0014503228012472391 -0.011144667863845825
0.0023370522540062666 0.0031591991428285837 -0.014846994541585445
0.0019680906552821398 0.004714639391750097 -0.018550172448158264
0.0014949451433494687 0.006135870702564716 -0.02224309928715229
0.001041901996359229 0.007603298407047987 -0.025821620598435402
0.0007715190295130014 0.00941580068320036 -0.029113179072737694
0.0007508308626711369 0.011377856135368347 -0.03223065659403801
0.0009129723184742035 0.013185320422053337 -0.03534965589642525
0.0011547972681000829 0.015064021572470667 -0.03833978623151779
0.0014014894841238856 0.016924243420362473 -0.04125285521149635
0.0016095859464257958 0.018649021163582802 -0.044156383723020554
0.0017607304034754632 0.02030785381793976 -0.04701025411486626
0.0018556131981313229 0.021976064890623093 -0.04977097362279892
0.0019071486312896013 0.023646999150514603 -0.052442386746406555
0.0019331572111696005 0.025272144004702568 -0.05505250021815299
0.0019505200907588003 0.026806766167283058 -0.05762714147567749
0.0019713775254786015 0.028240960091352463 -0.060172032564878464
0.002001940505579114 0.029605455696582798 -0.06266942620277405
0.0020439913496375084 0.030944405123591423 -0.06509383767843246
0.0020965919829905033 0.0322868786752224 -0.06742847710847855
0.002157271606847644 0.033633749932050705 -0.0696728378534317
0.0022228893358260393 0.03496749326586723 -0.07183705270290375
0.0022902570199221373 0.036267589777708054 -0.0739329531788826
0.0023565629962831736 0.03751865774393082 -0.07596942037343979
0.0024196337908506393 0.03871169686317444 -0.07795166224241257
0.002478071954101324 0.039843663573265076 -0.07988142967224121
0.002531298203393817 0.04091678559780121 -0.08175743371248245
0.0025795181281864643 0.04193766042590141 -0.08357586711645126
0.0026236188132315874 0.04291616752743721 -0.085331030189991
0.002664896659553051 0.04386318102478981 -0.08701664209365845
0.002704667393118143 0.04478754103183746 -0.08862759172916412
0.0027439913246780634 0.04569412022829056 -0.09016107767820358
0.0027835292275995016 0.046583086252212524 -0.09161699563264847
0.0028234992641955614 0.047450073063373566 -0.09299787133932114
0.0028637030627578497 0.048286907374858856 -0.09430841356515884
0.0029035976622253656 0.04908272996544838 -0.0955549031496048
0.0029423937667161226 0.04982602223753929 -0.09674398601055145
0.0029791651759296656 0.05050945281982422 -0.09787989407777786
0.0030129586812108755 0.05113391950726509 -0.09896211326122284
0.003042890690267086 0.05170894414186478 -0.09998513758182526
0.003068230813369155 0.052250590175390244 -0.10093969851732254
0.0030884635634720325 0.0527787022292614 -0.10181434452533723
0.0031033288687467575 0.053317781537771225 -0.10259491950273514
0.003112840000540018 0.05389809235930442 -0.10326395183801652
0.0031172798480838537 0.05455050989985466 -0.1038036197423935
0.0031171797309070826 0.0552983395755291 -0.10420046746730804
0.0031132809817790985 0.05614974722266197 -0.10444978624582292
0.0031064841896295547 0.057092983275651925 -0.1045583412051201
0.0030977895949035883 0.05809535086154938 -0.1045450270175934
0.003088234690949321 0.05910583212971687 -0.10443929582834245

CELLS 50 150
2 0 1
2 1 2
2 2 3
2 3 4
2 4 5
2 5 6
2 6 7
2 7 8
2 8 9
2 9 10
2 10 11
2 11 12
2 12 13
2 13 14
2 14 15
2 15 16
2 16 17
2 17 18
2 18 19
2 19 20
2 20 21
2 21 22
2 22 23
2 23 24
2 24 25
2 25 26
2 26 27
2 27 28
2 28 29
2 29 30
2 30 31
2 31 32
2 32 33
2 33 34
2 34 35
2 35 36
2 36 37
2 37 38
2 38 39
2 39 40
2 40 41
2 41 42
2 42 43
2 43 44
2 44 45
2 45 46
2 46 47
2 47 48
2 48 49
2 49 50

CELL_TYPES 50
4
4
4
4
4
4
4
4
4
4
4
4
4
4
4
4
4
4
4
4
4
4
4
4
4
4
4
4
4
4
4
4
4
4
4
4
4
4
4
4
4
4
4
4
4
4
4
4
4
4

POINT_DATA 51

SCALARS zone float
LOOKUP_TABLE default
1.0
1.0
1.0
1.0
1.0
1.0
1.0
1.0
1.0
1.0
1.0
1.0
1.0
1.0
1.0
1.0
1.0
1.0
1.0
1.0
1.0
1.0
1.0
1.0
1.0
1.0
1.0
1.0
1.0
1.0
1.0
1.0
1.0
1.0
1.0
1.0
1.0
1.0
1.0
1.0
1.0
1.0
1.0
1.0
1.0
1.0
1.0
1.0
1.0
1.0
1.0

VECTORS normals float
-0.00018154516874346882 0.0010365959024056792 -0.0017898617079481483
-0.00031745340675115585 0.0018910340731963515 -0.003641024697571993
-0.0003203890810254961 0.001632158295251429 -0.003702751826494932
-0.00042105361353605986 0.0014883356634527445 -0.0036980528384447098
-0.0004630943294614554 0.0014443295076489449 -0.0036357247736305
-0.00036171305691823363 0.0016399651067331435 -0.003435039659962058
-0.0001455355522921309 0.0018872787477448585 -0.0032045179978013043
7.072663720464334e-5 0.0018847596365958452 -0.003118237480521202
0.00020198317361064258 0.0018430830677971244 -0.0030545645859092474
0.00024425858282484114 0.0018694612663239238 -0.0029516001231968403
0.0002273943391628563 0.0017924999119713902 -0.002908298745751381
0.00017962048877961934 0.0016918058972805738 -0.0028786994516849518
0.0001230136549565941 0.0016635218635201454 -0.002807294251397252
7.320909935515374e-5 0.001669572782702744 -0.002716065850108862
3.8772002881160006e-5 0.0016480389749631286 -0.0026407635305076838
2.1685751562472433e-5 0.0015798831591382623 -0.002592378295958042
1.9110158973489888e-5 0.0014844086254015565 -0.002559765474870801
2.5710261979838833e-5 0.0013993452303111553 -0.0025211418978869915
3.630685023381375e-5 0.0013517220504581928 -0.0024609023239463568
4.732568413601257e-5 0.0013407111400738358 -0.0023795245215296745
5.6640183174749836e-5 0.0013446721713989973 -0.0022895026486366987
6.314866186585277e-5 0.0013403064804151654 -0.002204288262873888
6.649269198533148e-5 0.0013169196899980307 -0.0021300555672496557
6.683685205643997e-5 0.0012755831703543663 -0.002066186396405101
6.468839274020866e-5 0.0012220535427331924 -0.002009356627240777
6.0754482547054074e-5 0.0011625024490058422 -0.001956003485247493
5.583223173744046e-5 0.0011025442508980632 -0.001902885502204299
5.072306885267608e-5 0.001046999590471387 -0.0018472193041816354
4.616025398718193e-5 0.0009996918961405754 -0.0017867974238470197
4.268924021744169e-5 0.0009627594263292849 -0.0017203853931277988
4.052436997881159e-5 0.0009356869850307703 -0.0016482807695865631
3.9547361666336656e-5 0.0009154690778814255 -0.0015722186071798205
3.943082629120909e-5 0.0008977719116955994 -0.0014947010204195976
3.97539661207702e-5 0.0008779761265031993 -0.0014183952007442713
4.0087012166623026e-5 0.0008519103284925222 -0.0013457093155011535
4.004923903266899e-5 0.0008163300226442517 -0.0012785167200490832
3.934526102966629e-5 0.0007695579552091658 -0.0012177856406196952
3.778377140406519e-5 0.000713360495865345 -0.0011624962789937854
3.528250090312213e-5 0.0006539492169395089 -0.001109062461182475
3.186270623700693e-5 0.0005997461266815662 -0.001052621635608375
2.7636049708235078e-5 0.0005583346937783062 -0.0009887955384328961
2.2786460249335505e-5 0.0005348792765289545 -0.0009146025986410679
1.7549085896462202e-5 0.0005335960304364562 -0.0008276085136458279
1.21881839731941e-5 0.0005596941336989403 -0.0007248058100230992
6.97543964633951e-6 0.0006163646467030048 -0.0006043520988896489
2.169919071093318e-6 0.0007001249468885362 -0.00046825813478790224
-1.999401547436719e-6 0.0007996171480044721 -0.0003230813308618963
-5.347871592675801e-6 0.0008973212679848075 -0.00017893683980219066
-7.745714356133249e-6 0.0009728027507662773 -4.762263051816262e-5
-9.124661119130906e-6 0.0010064244270324707 5.952382707619108e-5
-4.777432877745014e-6 0.0005052408669143915 5.286687519401312e-5

CELL_DATA 50

VECTORS liftinglineloading               float
0.036558426916599274 0.043632157146930695 0.030551563948392865
-0.011538107879459858 0.0069689322263002396 0.0048796990886330605
0.054093167185783386 0.06782551109790802 0.04749193415045738
-0.03223956748843193 0.12010165303945541 0.08409608155488968
-0.4906214773654938 0.26230883598327637 0.18367062509059906
-1.2844510078430176 0.45083549618721 0.3156784176826477
-2.3632078170776367 0.6787616014480591 0.475273996591568
-3.525052070617676 0.9130881428718567 0.6393511891365051
-4.945906639099121 1.171331524848938 0.8201751708984375
-6.216963768005371 1.378791093826294 0.9654399752616881
-7.256498336791992 1.5217756032943726 1.0655587911605835
-8.037294387817383 1.609251856803894 1.1268103122711182
-8.521158218383789 1.639452338218689 1.1479568481445312
-8.245905876159668 1.540478229522705 1.0786545276641846
-8.33956241607666 1.4802063703536987 1.0364516973495483
-8.53048038482666 1.437345266342163 1.0064400434494019
-8.571009635925293 1.3746082782745361 0.9625111222267151
-8.8136568069458 1.3374930620193481 0.9365227222442627
-9.027352333068848 1.3121092319488525 0.9187487959861755
-9.08666706085205 1.306043267250061 0.9145013689994812
-9.402450561523438 1.2916685342788696 0.9044359922409058
-9.624423027038574 1.2459986209869385 0.8724576234817504
-9.581706047058105 1.1955829858779907 0.8371562361717224
-9.682939529418945 1.1693451404571533 0.818784236907959
-9.967649459838867 1.1407992839813232 0.7987962961196899
-10.156133651733398 1.1170763969421387 0.7821853756904602
-10.412224769592285 1.0911213159561157 0.7640113234519958
-10.664183616638184 1.0578867197036743 0.7407402992248535
-10.955495834350586 1.0228991508483887 0.716241717338562
-11.279763221740723 0.9854466915130615 0.6900172233581543
-11.408849716186523 0.9407647252082824 0.6587305665016174
-11.968658447265625 0.9170484542846681 0.6421242356300354
-12.06567096710205 0.8616562485694886 0.6033381819725037
-12.1152925491333 0.8255612850189209 0.5780642032623291
-12.13925838470459 0.7957582473754883 0.5571959018707275
-12.084263801574707 0.769239604473114 0.5386273264884949
-12.004693031311035 0.7538131475448608 0.527825653553009
-11.872520446777344 0.7418848872184753 0.5194733738899231
-11.694363594055176 0.723729133605957 0.5067605972290039
-11.318236351013184 0.7064228057861328 0.49464255571365356
-11.019023895263672 0.6865221858024597 0.48070803284645075
-10.366811752319336 0.6646125316619873 0.46536672115325933
-9.366168022155762 0.7524833679199219 0.5268945097923279
-8.0330228805542 0.8075870275497437 0.565478503704071
-6.928540229797362 0.9533761739730835 0.6675611734390259
-5.809707164764404 1.0058735609054565 0.7043203115463257
-4.954977989196777 1.0389093160629272 0.7274521589279175
-3.9809882640838627 1.075532078742981 0.7530956864356995
-3.0435221195220947 1.0967519283294678 0.7679539322853088
-1.651890993118286 1.1446613073349 0.8015004992485046