# vtk DataFile Version 4.0
 
ASCII
DATASET UNSTRUCTURED_GRID
POINTS 51 float
0.0029719590675085783 -0.003172669094055891 -0.00689568929374218
0.002608868759125471 -0.0024488435592502356 -0.010968602262437344
0.0023370522540062666 -0.002109294990077615 -0.015032120980322361
0.0019680906552821398 -0.001914220745675266 -0.01904396153986454
0.0014949451433494687 -0.0018417559331282971 -0.023000268265604973
0.001041901996359229 -0.0016867514932528138 -0.02686486765742302
0.0007715190295130014 -0.0011093352222815156 -0.030577832832932476
0.0007508308626711369 -0.0003318469680380076 -0.034178368747234344
0.0009129723184742035 0.00029985420405864716 -0.03772745281457901
0.0011547972681000829 0.0010425710352137685 -0.04117981344461441
0.0014014894841238856 0.0017942787380889058 -0.04455343633890152
0.0016095859464257958 0.0024219753686338663 -0.04787176847457886
0.0017607304034754632 0.003004687139764428 -0.05112088471651078
0.0018556131981313229 0.003628071630373597 -0.054285671561956406
0.0019071486312896013 0.004284559283405542 -0.057367473840713494
0.0019331572111696005 0.004918983206152916 -0.06037601083517074
0.0019505200907588003 0.005480477120727301 -0.06332025676965714
0.0019713775254786015 0.005957776214927435 -0.06620219349861145
0.002001940505579114 0.006385823246091604 -0.06901565939188004
0.0020439913496375084 0.0068148262798786155 -0.07175180315971375
0.0020965919829905033 0.007277844939380884 -0.07440480589866638
0.002157271606847644 0.007775871083140374 -0.07697447389364243
0.0022228893358260393 0.008288975805044174 -0.07946433126926422
0.0022902570199221373 0.008793827146291733 -0.08187849819660187
0.0023565629962831736 0.009272933006286621 -0.0842200443148613
0.0024196337908506393 0.009716055355966091 -0.08649078756570816
0.002478071954101324 0.010119738057255745 -0.08869132399559021
0.002531298203393817 0.010486509650945663 -0.09082122147083282
0.0025795181281864643 0.010823880322277546 -0.09287915378808975
0.0026236188132315874 0.011143074370920658 -0.09486313164234161
0.002664896659553051 0.011456463485956192 -0.0967709869146347
0.002704667393118143 0.011774100363254547 -0.09860093891620636
0.0027439913246780634 0.012101521715521812 -0.10035201162099838
0.0027835292275995016 0.012438924051821232 -0.10202416777610779
0.0028234992641955614 0.012781337834894657 -0.1036182940006256
0.0028637030627578497 0.013119472190737724 -0.10513601452112198
0.0029035976622253656 0.01344097964465618 -0.1065795198082924
0.0029423937667161226 0.013732753694057466 -0.10795111209154128
0.0029791651759296656 0.013986464589834213 -0.10925226658582687
0.0030129586812108755 0.014203133061528208 -0.11048279702663422
0.003042890690267086 0.014393582940101624 -0.11164079606533052
0.003068230813369155 0.014576083049178125 -0.11272304505109788
0.0030884635634720325 0.014773202128708363 -0.11372556537389755
0.0031033288687467575 0.015012797899544239 -0.11464343965053558
0.003112840000540018 0.015329286456108093 -0.11547061055898666
0.0031172798480838537 0.015757782384753227 -0.11620087176561356
0.0031171797309070826 0.016324782744050026 -0.1168295592069626
0.0031132809817790985 0.017039570957422256 -0.11735503375530244
0.0031064841896295547 0.01788879558444023 -0.1177796572446823
0.0030977895949035883 0.018835267052054405 -0.11810997128486633
0.003088234690949321 0.01982097141444683 -0.11835622042417526

CELLS 50 150
2 0 1
2 1 2
2 2 3
2 3 4
2 4 5
2 5 6
2 6 7
2 7 8
2 8 9
2 9 10
2 10 11
2 11 12
2 12 13
2 13 14
2 14 15
2 15 16
2 16 17
2 17 18
2 18 19
2 19 20
2 20 21
2 21 22
2 22 23
2 23 24
2 24 25
2 25 26
2 26 27
2 27 28
2 28 29
2 29 30
2 30 31
2 31 32
2 32 33
2 33 34
2 34 35
2 35 36
2 36 37
2 37 38
2 38 39
2 39 40
2 40 41
2 41 42
2 42 43
2 43 44
2 44 45
2 45 46
2 46 47
2 47 48
2 48 49
2 49 50

CELL_TYPES 50
4
4
4
4
4
4
4
4
4
4
4
4
4
4
4
4
4
4
4
4
4
4
4
4
4
4
4
4
4
4
4
4
4
4
4
4
4
4
4
4
4
4
4
4
4
4
4
4
4
4

POINT_DATA 51

SCALARS zone float
LOOKUP_TABLE default
1.0
1.0
1.0
1.0
1.0
1.0
1.0
1.0
1.0
1.0
1.0
1.0
1.0
1.0
1.0
1.0
1.0
1.0
1.0
1.0
1.0
1.0
1.0
1.0
1.0
1.0
1.0
1.0
1.0
1.0
1.0
1.0
1.0
1.0
1.0
1.0
1.0
1.0
1.0
1.0
1.0
1.0
1.0
1.0
1.0
1.0
1.0
1.0
1.0
1.0
1.0

VECTORS normals float
-0.00018154516874346882 0.00036191282561048865 -0.002036456484347582
-0.00031745340675115585 0.0005316870519891381 -0.0040682158432900906
-0.0003203890810254961 0.00026731134857982397 -0.004037679638713598
-0.00042105361353605986 0.00013376954302657396 -0.003984073642641306
-0.0004630943294614554 0.00011373464076314123 -0.003910453524440527
-0.00036171305691823363 0.0003662104136310518 -0.0037887825164943938
-0.0001455355522921309 0.0006774522480554879 -0.0036567493807524443
7.072663720464334e-5 0.0007045946549624205 -0.0035748104564845566
0.00020198317361064258 0.0006872089579701424 -0.0035007232800126076
0.00024425858282484114 0.0007472122670151293 -0.0034129901323467497
0.0002273943391628563 0.0006897022249177098 -0.003345977980643511
0.00017962048877961934 0.0006052042590454221 -0.0032837244216352697
0.0001230136549565941 0.0006030480726622045 -0.0032069517765194178
7.320909935515374e-5 0.0006399358971975744 -0.003123294562101364
3.8772002881160006e-5 0.0006454557878896594 -0.003045168472453952
2.1685751562472433e-5 0.0005979589186608791 -0.0029763905331492424
1.9110158973489888e-5 0.0005193965043872595 -0.0029130904003977776
2.5710261979838833e-5 0.0004526730335783213 -0.002847702708095312
3.630685023381375e-5 0.00042852506157942116 -0.002774807857349515
4.732568413601257e-5 0.0004460110212676227 -0.0026945718564093113
5.6640183174749836e-5 0.00048052243073470885 -0.0026113337371498346
6.314866186585277e-5 0.0005055652000010014 -0.002529765246436
6.649269198533148e-5 0.000508977856952697 -0.0024520105216652155
6.683685205643997e-5 0.0004919787752442062 -0.0023778551258146763
6.468839274020866e-5 0.00046111422125250096 -0.0023061446845531464
6.0754482547054074e-5 0.00042340237996540964 -0.0022356414701789618
5.583223173744046e-5 0.00038522746763192117 -0.002165219746530056
5.072306885267608e-5 0.0003520715399645269 -0.0020939132664352655
4.616025398718193e-5 0.0003282823308836669 -0.0020209550857543945
4.268924021744169e-5 0.0003162914654240012 -0.0019459165632724764
4.052436997881159e-5 0.0003155129379592836 -0.0018689010757952929
3.9547361666336656e-5 0.0003225291147828102 -0.0017905110726132987
3.943082629120909e-5 0.00033241178607568145 -0.0017116157105192544
3.97539661207702e-5 0.000339907972374931 -0.0016331410733982918
4.0087012166623026e-5 0.00034027412766590714 -0.001555923605337739
4.004923903266899e-5 0.00032982081756927073 -0.0014806140679866076
3.934526102966629e-5 0.00030664075165987015 -0.0014075484359636903
3.778377140406519e-5 0.0002727424434851855 -0.0013363728066906333
3.528250090312213e-5 0.00023518955276813358 -0.0012658415362238884
3.186270623700693e-5 0.0002035592042375356 -0.001194266020320356
2.7636049708235078e-5 0.00018647496472112834 -0.0011201256420463324
2.2786460249335505e-5 0.0001898095797514543 -0.0010423847706988454
1.7549085896462202e-5 0.000218357439734973 -0.0009601982310414314
1.21881839731941e-5 0.0002780422510113567 -0.0008725213119760156
6.97543964633951e-6 0.00037249267916195095 -0.0007787143695168197
2.169919071093318e-6 0.0004977484932169318 -0.00067947554634884
-1.999401547436719e-6 0.00064089399529621 -0.0005770822754129767
-5.347871592675801e-6 0.000782006187364459 -0.0004750475927721709
-7.745714356133249e-6 0.0008978476980701089 -0.0003774687647819519
-9.124661119130906e-6 0.0009660879732109606 -0.0002882833359763026
-4.777432877745014e-6 0.0004928526468575001 -0.00012312392937019467

CELL_DATA 50

VECTORS liftinglineloading               float
0.061080388724803925 0.07060455530881882 0.018918432295322418
0.024025289341807365 0.044327907264232635 0.011877626180648804
0.03950565680861473 0.05599421635270118 0.015003604814410211
0.09725131839513779 0.10554417967796326 0.028280477970838547
-0.208674356341362 0.2307068109512329 0.061817701905965805
-1.0220781564712524 0.4730460047721863 0.12675230205059052
-2.0813369750976562 0.7759479284286499 0.20791462063789365
-3.2395222187042236 1.0600045919418335 0.2840273678302765
-4.673964023590088 1.3743864297866821 0.3682657480239868
-5.954325199127197 1.6218829154968262 0.43458220362663263
-6.96298885345459 1.7792088985443115 0.47673758864402777
-7.773701190948487 1.8927427530288699 0.5071588754653931
-8.3272705078125 1.937206745147705 0.5190730094909668
-8.026902198791504 1.8127188682556152 0.4857165515422821
-8.09711742401123 1.734884858131409 0.46486097574234014
-8.299378395080566 1.6857285499572754 0.45168960094451904
-8.336079597473145 1.6148914098739624 0.43270882964134216
-8.620830535888672 1.5797865390777588 0.42330253124237055
-8.834951400756836 1.5514037609100342 0.41569739580154424
-8.938677787780762 1.5440865755081177 0.4137367308139801
-9.295661926269531 1.5312321186065674 0.4102924168109894
-9.565125465393066 1.4784053564071655 0.3961375057697296
-9.579571723937988 1.4204425811767578 0.38060644268989563
-9.738020896911621 1.390367031097412 0.3725477159023285
-9.904498100280762 1.354387640953064 0.3629070520401001
-10.134978294372559 1.3268053531646729 0.3555164039134979
-10.413385391235352 1.296412706375122 0.34737274050712585
-10.702651023864746 1.2558540105819702 0.33650505542755127
-11.02724838256836 1.2132309675216675 0.32508426904678345
-11.376214981079102 1.1675779819488525 0.31285157799720764
-11.516108512878418 1.113404393196106 0.29833582043647766
-12.077024459838867 1.084177851676941 0.2905045747756958
-12.130821228027344 1.0198603868484497 0.27327078580856323
-12.166464805603027 0.9773941040039061 0.2618919610977173
-12.175432205200195 0.9424640536308289 0.2525324821472168
-12.132292747497559 0.9097211360931396 0.24375903606414795
-12.04030990600586 0.891779363155365 0.23895156383514404
-11.95397663116455 0.8768707513809204 0.23495681583881378
-11.745994567871094 0.8561989665031434 0.2294178158044815
-11.34292221069336 0.8362937569618225 0.22408422827720642
-11.021202087402344 0.8130918145179749 0.21786729991436007
-10.350747108459473 0.7867738604545593 0.21081541478633883
-9.337984085083008 0.8902879357337953 0.23855192959308624
-7.9923176765441895 0.9546307325363159 0.2557925283908844
-6.877760887145997 1.125119686126709 0.3014748990535736
-5.73952579498291 1.1852012872695923 0.3175737261772156
-4.882422924041748 1.2233306169509888 0.3277904689311981
-3.908299207687378 1.265611171722412 0.33911949396133423
-2.975026845932007 1.2894419431686401 0.3455049395561218
-1.6054012775421143 1.344840407371521 0.3603489100933075