# vtk DataFile Version 4.0
 
ASCII
DATASET UNSTRUCTURED_GRID
POINTS 51 float
0.0029719590675085783 0.007341856602579355 -0.0019270452903583646
0.002608868759125471 0.011227201670408249 -0.0005069622420705855
0.0023370522540062666 0.015170024707913399 0.0005330502754077315
0.0019680906552821398 0.019087040796875954 0.001421809778548777
0.0014949451433494687 0.022970659658312798 0.002180179115384817
0.001041901996359229 0.02674963138997555 0.003003909485414624
0.0007715190295130014 0.030305922031402588 0.004217302892357111
0.0007508308626711369 0.03371674567461014 0.005608205683529377
0.0009129723184742035 0.037102218717336655 0.006846602540463209
0.0011547972681000829 0.04037315770983696 0.008177531883120537
0.0014014894841238856 0.043564993888139725 0.009503642097115517
0.0016095859464257958 0.04672391712665558 0.010698026046156883
0.0017607304034754632 0.04982248321175575 0.011836087331175804
0.0018556131981313229 0.05283094197511673 0.012999560683965683
0.0019071486312896013 0.05575192719697952 0.014181223697960378
0.0019331572111696005 0.058604590594768524 0.015328437089920044
0.0019505200907588003 0.06140660122036933 0.01639266312122345
0.0019713775254786015 0.06416187435388565 0.017363153398036957
0.002001940505579114 0.06685826927423477 0.01827325113117695
0.0020439913496375084 0.0694783553481102 0.019170863553881645
0.0020965919829905033 0.07201064378023148 0.020087536424398422
0.002157271606847644 0.07445479184389114 0.02102421596646309
0.0022228893358260393 0.07681772857904434 0.021961884573101997
0.0022902570199221373 0.07910754531621933 0.02287827990949154
0.0023565629962831736 0.0813303217291832 0.023756712675094604
0.0024196337908506393 0.08348961919546127 0.024587413296103477
0.002478071954101324 0.08558662980794907 0.025367083027958873
0.002531298203393817 0.08762048184871674 0.02609813585877419
0.0025795181281864643 0.08958856016397476 0.02678773738443851
0.0026236188132315874 0.09148697555065155 0.027446595951914787
0.002664896659553051 0.09331142157316208 0.028086518868803974
0.002704667393118143 0.09505841881036758 0.028717098757624626
0.0027439913246780634 0.09672603011131287 0.0293436162173748
0.0027835292275995016 0.09831419587135315 0.029966259375214577
0.0028234992641955614 0.09982463717460632 0.030580287799239162
0.0028637030627578497 0.10126058757305145 0.031176835298538208
0.0029035976622253656 0.10262633115053175 0.03174411877989769
0.0029423937667161226 0.1039264276623726 0.032269638031721115
0.0029791651759296656 0.10516375303268433 0.03274543583393097
0.0030129586812108755 0.10633796453475952 0.03317249193787575
0.003042890690267086 0.10744529962539671 0.03356113284826279
0.003068230813369155 0.10847941786050795 0.03392879292368889
0.0030884635634720325 0.10943248122930527 0.034297000616788864
0.0031033288687467575 0.11029480397701263 0.034692343324422836
0.003112840000540018 0.11105445027351378 0.03514765948057175
0.0031172798480838537 0.11169920861721039 0.03569645807147026
0.0031171797309070826 0.11221988499164581 0.03636401519179344
0.0031132809817790985 0.1126132607460022 0.03715918958187103
0.0031064841896295547 0.11288396269083023 0.03806924819946289
0.0030977895949035883 0.11304491013288498 0.03905869647860527
0.003088234690949321 0.11311624944210052 0.04007218778133392

CELLS 50 150
2 0 1
2 1 2
2 2 3
2 3 4
2 4 5
2 5 6
2 6 7
2 7 8
2 8 9
2 9 10
2 10 11
2 11 12
2 12 13
2 13 14
2 14 15
2 15 16
2 16 17
2 17 18
2 18 19
2 19 20
2 20 21
2 21 22
2 22 23
2 23 24
2 24 25
2 25 26
2 26 27
2 27 28
2 28 29
2 29 30
2 30 31
2 31 32
2 32 33
2 33 34
2 34 35
2 35 36
2 36 37
2 37 38
2 38 39
2 39 40
2 40 41
2 41 42
2 42 43
2 43 44
2 44 45
2 45 46
2 46 47
2 47 48
2 48 49
2 49 50

CELL_TYPES 50
4
4
4
4
4
4
4
4
4
4
4
4
4
4
4
4
4
4
4
4
4
4
4
4
4
4
4
4
4
4
4
4
4
4
4
4
4
4
4
4
4
4
4
4
4
4
4
4
4
4

POINT_DATA 51

SCALARS zone float
LOOKUP_TABLE default
1.0
1.0
1.0
1.0
1.0
1.0
1.0
1.0
1.0
1.0
1.0
1.0
1.0
1.0
1.0
1.0
1.0
1.0
1.0
1.0
1.0
1.0
1.0
1.0
1.0
1.0
1.0
1.0
1.0
1.0
1.0
1.0
1.0
1.0
1.0
1.0
1.0
1.0
1.0
1.0
1.0
1.0
1.0
1.0
1.0
1.0
1.0
1.0
1.0
1.0
1.0

VECTORS normals float
-0.00018154516874346882 0.0019426726503297689 0.0007100414950400591
-0.00031745340675115585 0.003914083819836378 0.001230047782883048
-0.0003203890810254961 0.00392992002889514 0.0009643859812058508
-0.00042105361353605986 0.003900317940860987 0.0008235644199885428
-0.0004630943294614554 0.003831295063719154 0.0007910499116405845
-0.00036171305691823363 0.0036676304880529646 0.0010185620049014688
-0.0001455355522921309 0.0034835566766560078 0.0013021480990573764
7.072663720464334e-5 0.003398149507120252 0.0013146495912224054
0.00020198317361064258 0.003328206716105342 0.001284662983380258
0.00024425858282484114 0.0032313871197402473 0.0013285200111567974
0.0002273943391628563 0.0031753794755786657 0.0012602470815181732
0.00017962048877961934 0.003128744661808014 0.0011662226170301437
0.0001230136549565941 0.003053512657061219 0.0011507677845656872
7.320909935515374e-5 0.0029647210612893105 0.0011725682998076081
3.8772002881160006e-5 0.0028868233785033226 0.001164437853731215
2.1685751562472433e-5 0.0028273381758481264 0.001105719362385571
1.9110158973489888e-5 0.0027786418795585632 0.001017358503304422
2.5710261979838833e-5 0.0027258340269327164 0.000940294296015054
3.630685023381375e-5 0.002658239798620343 0.0009038551361300051
4.732568413601257e-5 0.0025761863216757774 0.0009071425884030759
5.6640183174749836e-5 0.002488219877704978 0.0009266755660064518
6.314866186585277e-5 0.002403541933745146 0.0009371736086905004
6.649269198533148e-5 0.002326376037672162 0.0009270324953831732
6.683685205643997e-5 0.002256298903375864 0.0008974146912805736
6.468839274020866e-5 0.002191037405282259 0.0008545666350983083
6.0754482547054074e-5 0.002128153806552291 0.0008051850018091499
5.583223173744046e-5 0.0020654310937970877 0.0007553614559583366
5.072306885267608e-5 0.0020009654108434916 0.0007103270036168396
4.616025398718193e-5 0.0019332466181367636 0.0006742301629856229
4.268924021744169e-5 0.001861430355347693 0.000649391149636358
4.052436997881159e-5 0.0017857200000435112 0.0006352508207783103
3.9547361666336656e-5 0.001707302639260888 0.0006285481504164636
3.943082629120909e-5 0.001627889694646001 0.0006245806580409408
3.97539661207702e-5 0.0015493055107071996 0.0006183359655551612
4.0087012166623026e-5 0.0014731977134943008 0.0006052879034541547
4.004923903266899e-5 0.0014008473372086883 0.0005819160141982138
3.934526102966629e-5 0.0013329170178622007 0.0005464004352688789
3.778377140406519e-5 0.0012687090784311295 0.0005006575956940651
3.528250090312213e-5 0.0012057704152539372 0.0004514275642577559
3.186270623700693e-5 0.001140774809755385 0.0004078487982042134
2.7636049708235078e-5 0.0010707273613661528 0.000378149765310809
2.2786460249335505e-5 0.0009935885900631547 0.0003679341753013432
1.7549085896462202e-5 0.0009076932910829782 0.00038177677197381854
1.21881839731941e-5 0.0008109842310659588 0.00042532992665655916
6.97543964633951e-6 0.0007022012723609805 0.0005020560347475111
2.169919071093318e-6 0.0005827196291647851 0.0006081762840040028
-1.999401547436719e-6 0.00045702504576183856 0.0007313666865229607
-5.347871592675801e-6 0.0003320366085972637 0.0008526169112883508
-7.745714356133249e-6 0.00021582456247415394 0.0009497540886513889
-9.124661119130906e-6 0.00011614424147410318 0.0010014708386734128
-4.777432877745014e-6 3.5670444049173966e-5 0.0005067453603260219

CELL_DATA 50

VECTORS liftinglineloading               float
0.10003577917814255 -0.04290202632546425 0.09200368821620941
0.16327586770057678 -0.07725506275892258 0.16567401587963104
-0.04945819452404976 -0.01576889306306839 0.03381650149822235
0.13897109031677246 -0.035187166184186935 0.07545912265777588
0.031579699367284775 -0.06389335542917252 0.13701973855495453
-0.6811232566833496 -0.1666947305202484 0.3574780225753784
-1.7011061906814573 -0.3207307755947113 0.6878093481063843
-2.8935883045196533 -0.45457923412323 0.9748483300209044
-4.295559406280518 -0.5929829478263855 1.2716560363769531
-5.532987117767334 -0.6989602446556091 1.4989250898361206
-6.454713821411133 -0.7578479051589966 1.625210165977478
-7.249279499053955 -0.8093607425689697 1.7356797456741333
-7.8326168060302725 -0.8300475478172302 1.7800427675247195
-7.482490062713624 -0.7710917592048645 1.6536115407943728
-7.435354232788086 -0.7285602688789368 1.5624024868011475
-7.588850021362305 -0.7059217691421509 1.5138540267944336
-7.552271366119385 -0.675996720790863 1.4496796131134033
-7.8538594245910645 -0.6676355600357056 1.4317491054534912
-7.9847655296325675 -0.6549974679946899 1.404646635055542
-8.159871101379395 -0.6512700915336609 1.3966532945632935
-8.795501708984375 -0.6568174958229065 1.4085496664047241
-9.128458976745605 -0.6358444094657898 1.3635727167129517
-9.221882820129395 -0.6131032705307007 1.314804196357727
-9.44911003112793 -0.6019197106361389 1.2908209562301636
-9.67653751373291 -0.5878981351852417 1.260751724243164
-9.948543548583984 -0.5768060088157654 1.236964464187622
-10.260794639587402 -0.5639093518257141 1.2093075513839722
-10.542980194091797 -0.5466845035552979 1.1723687648773193
-10.971137046813965 -0.5281270146369934 1.132572054862976
-11.337849617004395 -0.5083572268486023 1.0901756286621094
-11.48110294342041 -0.4849609434604644 1.0400021076202393
-12.033985137939453 -0.47258785367012024 1.0134679079055786
-12.08051586151123 -0.44502475857734686 0.954358696937561
-12.107211112976074 -0.426982432603836 0.9156667590141296
-12.107236862182617 -0.4121514856815338 0.8838617205619813
-12.05582332611084 -0.39816007018089294 0.8538570404052734
-11.956927299499512 -0.39050784707069397 0.8374467492103576
-11.811678886413574 -0.3845159113407135 0.8245970606803895
-11.626748085021973 -0.37522226572036743 0.8046667575836182
-11.253620147705078 -0.3661644756793976 0.7852422595024109
-11.198334693908691 -0.3530333638191223 0.7570825219154358
-10.520931243896484 -0.3428327143192291 0.7352071404457092
-9.496232032775879 -0.38875263929367065 0.8336827754974365
-8.15137004852295 -0.41779342293739313 0.8959608674049376
-7.036002635955811 -0.4940652847290039 1.0595264434814453
-5.89923620223999 -0.5214815735816956 1.1183209419250488
-5.0446696281433105 -0.5388792157173157 1.155630111694336
-4.06959867477417 -0.5581782460212708 1.1970170736312866
-3.1271541118621826 -0.5695945620536804 1.2214994430541992
-1.709439992904663 -0.5947670936584473 1.2754820585250854