# vtk DataFile Version 4.0
 
ASCII
DATASET UNSTRUCTURED_GRID
POINTS 51 float
0.0029719590675085783 -0.0037615951150655746 -0.006592932622879744
0.002608868759125471 -0.0033955015242099758 -0.010713432915508747
0.0023370522540062666 -0.003411404322832823 -0.014791081659495829
0.0019680906552821398 -0.003566727042198181 -0.018804658204317093
0.0014949451433494687 -0.0038393530994653706 -0.022752225399017334
0.001041901996359229 -0.004021760541945696 -0.026615628972649578
0.0007715190295130014 -0.0037701474502682686 -0.030364790931344036
0.0007508308626711369 -0.003309425199404359 -0.034019384533166885
0.0009129723184742035 -0.0029894511681050062 -0.037610024213790894
0.0011547972681000829 -0.002550453646108508 -0.04111397638916969
0.0014014894841238856 -0.0020956366788595915 -0.04454027861356735
0.0016095859464257958 -0.0017595405224710705 -0.047900691628456116
0.0017607304034754632 -0.001462225103750825 -0.05118823051452637
0.0018556131981313229 -0.0011170424986630678 -0.05439530685544013
0.0019071486312896013 -0.000731649633962661 -0.05752259492874146
0.0019331572111696005 -0.0003618511254899204 -0.0605749785900116
0.0019505200907588003 -5.910167237743735e-5 -0.06355695426464081
0.0019713775254786015 0.00016520377539563924 -0.06646952778100967
0.002001940505579114 0.00034641197999008 -0.06930959224700928
0.0020439913496375084 0.0005353116430342197 -0.07207272201776505
0.0020965919829905033 0.0007653447682969272 -0.07475597411394119
0.002157271606847644 0.0010375140700489283 -0.07735927402973175
0.0022228893358260393 0.001331660314463079 -0.07988438010215759
0.0022902570199221373 0.0016241824487224221 -0.08233335614204407
0.0023565629962831736 0.0018973861588165164 -0.08470775187015533
0.0024196337908506393 0.0021409140899777412 -0.08700846880674362
0.002478071954101324 0.0023512705229222775 -0.089235819876194
0.002531298203393817 0.002531014382839203 -0.09138958156108856
0.0025795181281864643 0.002687741070985794 -0.09346908330917358
0.0026236188132315874 0.0028328050393611193 -0.09547333419322968
0.002664896659553051 0.0029787211678922176 -0.09740123897790909
0.002704667393118143 0.0031356588006019592 -0.09925191104412079
0.0027439913246780634 0.0033092182129621506 -0.10102485865354538
0.0027835292275995016 0.0034995982423424725 -0.10272005945444107
0.0028234992641955614 0.003701771842315793 -0.10433796048164368
0.0028637030627578497 0.003906341269612312 -0.10587938129901885
0.0029035976622253656 0.0041008153930306435 -0.10734540969133377
0.0029423937667161226 0.004271937534213066 -0.10873721539974211
0.0029791651759296656 0.00441127922385931 -0.11005552858114244
0.0030129586812108755 0.004519875627011061 -0.1113002598285675
0.003042890690267086 0.004608674440532923 -0.11247045546770097
0.003068230813369155 0.004696155898272991 -0.11356449127197266
0.0030884635634720325 0.004805149044841528 -0.1145803779363632
0.0031033288687467575 0.00496383523568511 -0.11551564186811447
0.003112840000540018 0.005207027308642864 -0.11636724323034285
0.0031172798480838537 0.005570246838033199 -0.11713207513093948
0.0031171797309070826 0.006080295890569687 -0.11780778318643569
0.0031132809817790985 0.006746564991772175 -0.11839356273412704
0.0031064841896295547 0.007555550429970026 -0.11889057606458664
0.0030977895949035883 0.008469630032777786 -0.11930213123559952
0.003088234690949321 0.009430122561752796 -0.11963335424661638

CELLS 50 150
2 0 1
2 1 2
2 2 3
2 3 4
2 4 5
2 5 6
2 6 7
2 7 8
2 8 9
2 9 10
2 10 11
2 11 12
2 12 13
2 13 14
2 14 15
2 15 16
2 16 17
2 17 18
2 18 19
2 19 20
2 20 21
2 21 22
2 22 23
2 23 24
2 24 25
2 25 26
2 26 27
2 27 28
2 28 29
2 29 30
2 30 31
2 31 32
2 32 33
2 33 34
2 34 35
2 35 36
2 36 37
2 37 38
2 38 39
2 39 40
2 40 41
2 41 42
2 42 43
2 43 44
2 44 45
2 45 46
2 46 47
2 47 48
2 48 49
2 49 50

CELL_TYPES 50
4
4
4
4
4
4
4
4
4
4
4
4
4
4
4
4
4
4
4
4
4
4
4
4
4
4
4
4
4
4
4
4
4
4
4
4
4
4
4
4
4
4
4
4
4
4
4
4
4
4

POINT_DATA 51

SCALARS zone float
LOOKUP_TABLE default
1.0
1.0
1.0
1.0
1.0
1.0
1.0
1.0
1.0
1.0
1.0
1.0
1.0
1.0
1.0
1.0
1.0
1.0
1.0
1.0
1.0
1.0
1.0
1.0
1.0
1.0
1.0
1.0
1.0
1.0
1.0
1.0
1.0
1.0
1.0
1.0
1.0
1.0
1.0
1.0
1.0
1.0
1.0
1.0
1.0
1.0
1.0
1.0
1.0
1.0
1.0

VECTORS normals float
-0.00018154516874346882 0.00018304676632396877 -0.002060249913483858
-0.00031745340675115585 0.0001750954397721216 -0.004099074751138687
-0.0003203890810254961 -8.561279537389055e-5 -0.004045612644404173
-0.00042105361353605986 -0.00021397440286818892 -0.003980571869760752
-0.0004630943294614554 -0.00022751663345843556 -0.0039054858498275276
-0.00036171305691823363 3.460271909716539e-5 -0.003806282300502062
-0.0001455355522921309 0.00035616764216683805 -0.0037018780130892996
7.072663720464334e-5 0.00039034822839312255 -0.0036226166412234306
0.00020198317361064258 0.00037948580575175583 -0.0035472961608320475
0.00024425858282484114 0.0004469072155188769 -0.0034651265013962984
0.0002273943391628563 0.000395456503611058 -0.0033933569211512804
0.00017962048877961934 0.00031670581665821373 -0.0033239759504795074
0.0001230136549565941 0.00032124901190400124 -0.0032473073806613684
7.320909935515374e-5 0.0003652877057902515 -0.003167183604091406
3.8772002881160006e-5 0.0003775956865865737 -0.0030898358672857285
2.1685751562472433e-5 0.00033627398079261184 -0.003017180133610964
1.9110158973489888e-5 0.0002635274431668222 -0.002947273664176464
2.5710261979838833e-5 0.00020275682618375865 -0.002876319456845522
3.630685023381375e-5 0.00018505394109524786 -0.002801597351208329
4.732568413601257e-5 0.00020946639415342358 -0.002723190700635314
5.6640183174749836e-5 0.0002511011844035238 -0.002643277170136571
6.314866186585277e-5 0.00028315780218690634 -0.002564201597124338
6.649269198533148e-5 0.0002933342184405774 -0.0024870403576642275
6.683685205643997e-5 0.00028286289307288826 -0.0024116854183375835
6.468839274020866e-5 0.0002583657915238291 -0.002337557729333639
6.0754482547054074e-5 0.00022694221115671096 -0.0022640360984951258
5.583223173744046e-5 0.00019505021919030696 -0.002190555213019252
5.072306885267608e-5 0.00016823524492792785 -0.00211663031950593
4.616025398718193e-5 0.0001508952846052125 -0.0020418765489012003
4.268924021744169e-5 0.000145490063005127 -0.0019660783000290394
4.052436997881159e-5 0.00015142686606850475 -0.0018892880761995912
3.9547361666336656e-5 0.00016524846432730556 -0.0018118078587576747
3.943082629120909e-5 0.00018196972087025642 -0.0017340740887448194
3.97539661207702e-5 0.00019627688743639737 -0.0016565513797104359
4.0087012166623026e-5 0.00020337160094641146 -0.0015796597581356764
4.004923903266899e-5 0.00019952174625359476 -0.0015037256525829434
3.934526102966629e-5 0.00018279795767739415 -0.001428917865268886
3.778377140406519e-5 0.00015523201727773994 -0.0013550586299970746
3.528250090312213e-5 0.00012396922102198005 -0.0012815227964892983
3.186270623700693e-5 9.86974555416964e-5 -0.0012074628612026572
2.7636049708235078e-5 8.813999011181295e-5 -0.0011321156052872539
2.2786460249335505e-5 9.823746950132772e-5 -0.001054961234331131
1.7549085896462202e-5 0.0001338397414656356 -0.0009755754726938902
1.21881839731941e-5 0.0002009389863815159 -0.0008934341021813452
6.97543964633951e-6 0.0003032058011740446 -0.0008082159911282361
2.169919071093318e-6 0.0004366342327557504 -0.0007202715496532619
-1.999401547436719e-6 0.0005881591350771487 -0.0006307439180091023
-5.347871592675801e-6 0.0007376272697001696 -0.0005413962062448263
-7.745714356133249e-6 0.0008615325205028058 -0.000454284978331998
-9.124661119130906e-6 0.000937286182306707 -0.0003713864425662905
-4.777432877745014e-6 0.00048024620627984405 -0.00016561034135520458

CELL_DATA 50

VECTORS liftinglineloading               float
0.06004010885953903 0.07128022611141205 0.012568626552820206
0.02054411731660366 0.04144768416881561 0.007308344822376966
0.04192817211151123 0.0577937625348568 0.010190599597990513
0.09431710094213486 0.10849380493164061 0.019130384549498558
-0.20473253726959229 0.2338714599609375 0.04123784974217415
-1.013371467590332 0.48010104894638056 0.08465477079153061
-2.072699546813965 0.7904863953590393 0.13938407599925995
-3.2391891479492188 1.0807197093963623 0.19056004285812378
-4.6969780921936035 1.4022806882858276 0.24725992977619174
-5.979198455810547 1.6547954082489014 0.2917850911617279
-6.988526821136475 1.8160984516143799 0.32022714614868164
-7.7923569679260245 1.930961012840271 0.3404805362224579
-8.338174819946289 1.9759720563888552 0.348417192697525
-8.07654094696045 1.8524259328842163 0.32663267850875854
-8.136115074157715 1.77292799949646 0.3126150369644165
-8.315546989440918 1.720858097076416 0.30343371629714966
-8.323005676269531 1.6464999914169312 0.2903223931789398
-8.576033592224121 1.6097466945648193 0.2838417887687683
-8.739266395568848 1.579064965248108 0.27843177318573
-9.094046592712402 1.5829859972000122 0.27912312746047974
-9.461223602294922 1.568274974822998 0.2765291929244995
-9.73497200012207 1.5141618251800537 0.2669875919818878
-9.740851402282715 1.4537185430526733 0.25632980465888977
-9.886137962341309 1.4215868711471558 0.2506641149520874
-10.034884452819824 1.3831406831741333 0.24388502538204196
-10.25131893157959 1.3538881540298462 0.23872700333595273
-10.52826976776123 1.321121096611023 0.23294928669929504
-10.824225425720215 1.2795805931091309 0.22562459111213684
-11.149572372436523 1.2355543375015259 0.2178615629673004
-11.49654483795166 1.1882632970809937 0.20952287316322327
-11.624838829040527 1.1324459314346313 0.19968077540397644
-12.17158031463623 1.1019940376281738 0.19431129097938538
-12.218152046203613 1.0356860160827637 0.1826193928718567
-12.24892520904541 0.992716908454895 0.1750427633523941
-12.254600524902344 0.9574508666992186 0.16882441937923431
-12.210145950317383 0.924429178237915 0.16300180554389954
-12.079302787780762 0.9084538221359253 0.16018491983413696
-11.922082901000977 0.8948105573654175 0.1577792465686798
-11.721672058105469 0.8734433650970459 0.15401163697242737
-11.326424598693848 0.8528748154640199 0.1503848433494568
-11.011711120605469 0.8290296792984009 0.14618030190467834
-10.348010063171387 0.8020448088645935 0.14142213761806488
-9.341139793395996 0.9075588583946229 0.16002711653709412
-8.000823020935059 0.9732702970504761 0.17161381244659424
-6.8909149169921875 1.1474920511245728 0.20233380794525146
-5.756948471069336 1.2092148065567017 0.21321719884872434
-4.9037981033325195 1.2485458850860596 0.2201523333787918
-3.93268084526062 1.2922152280807495 0.22785241901874542
-3.0153932571411133 1.3189867734909058 0.2325729429721832
-1.6339844465255737 1.3764714002609253 0.2427090406417847