# vtk DataFile Version 4.0
 
ASCII
DATASET UNSTRUCTURED_GRID
POINTS 51 float
0.0029719590675085783 -0.004385507665574551 0.006195456720888615
0.002608868759125471 -0.008274666033685207 0.007605061866343021
0.0023370522540062666 -0.011963550932705402 0.00934276357293129
0.0019680906552821398 -0.015535444021224974 0.011179744265973568
0.0014949451433494687 -0.01899793930351734 0.013095141388475895
0.001041901996359229 -0.02242228202521801 0.014893203973770142
0.0007715190295130014 -0.025926511734724045 0.016249628737568855
0.0007508308626711369 -0.029433410614728924 0.017376571893692017
0.0009129723184742035 -0.0328228622674942 0.01860404573380947
0.0011547972681000829 -0.036184050142765045 0.01968701370060444
0.0014014894841238856 -0.039481546729803085 0.020722826942801476
0.0016095859464257958 -0.042669154703617096 0.021838393062353134
0.0017607304034754632 -0.04577432572841644 0.022958306595683098
0.0018556131981313229 -0.048826806247234344 0.024000834673643112
0.0019071486312896013 -0.051823969930410385 0.024973198771476746
0.0019331572111696005 -0.05474665015935898 0.025928040966391567
0.0019505200907588003 -0.05757718533277511 0.026913894340395927
0.0019713775254786015 -0.06031166762113571 0.0279415100812912
0.002001940505579114 -0.06296222656965256 0.028977544978260994
0.0020439913496375084 -0.06554630398750305 0.02997408993542194
0.0020965919829905033 -0.06807537376880646 0.03089960291981697
0.002157271606847644 -0.07054978609085083 0.03175313398241997
0.0022228893358260393 -0.07296261936426163 0.03255370259284973
0.0022902570199221373 -0.0753057673573494 0.03332357108592987
0.0023565629962831736 -0.07757316529750824 0.034079425036907196
0.0024196337908506393 -0.07976124435663223 0.03483104333281517
0.002478071954101324 -0.08186881244182587 0.03558171167969704
0.002531298203393817 -0.08389674127101898 0.03632902726531029
0.0025795181281864643 -0.0858476459980011 0.03706582263112068
0.0026236188132315874 -0.08772542327642441 0.037781380116939545
0.002664896659553051 -0.08953436464071274 0.038463905453681946
0.002704667393118143 -0.09127796441316605 0.03910379856824875
0.0027439913246780634 -0.09295815229415894 0.039695776998996735
0.0027835292275995016 -0.09457498043775558 0.04023965820670128
0.0028234992641955614 -0.0961267426609993 0.040740180760622025
0.0028637030627578497 -0.09761019796133041 0.04120621085166931
0.0029035976622253656 -0.0990210622549057 0.041649527847766876
0.0029423937667161226 -0.10035478323698044 0.042082641273736954
0.0029791651759296656 -0.10160847008228303 0.04251349717378616
0.0030129586812108755 -0.1027824729681015 0.042941123247146606
0.003042890690267086 -0.10388055443763733 0.04335518926382065
0.003068230813369155 -0.10490906238555908 0.043738264590501785
0.0030884635634720325 -0.10587582737207411 0.04406881332397461
0.0031033288687467575 -0.10679053515195845 0.044320255517959595
0.003112840000540018 -0.10766512155532837 0.0444597527384758
0.0031172798480838537 -0.10851179808378221 0.04445379599928856
0.0031171797309070826 -0.10933975875377655 0.04427710175514221
0.0031132809817790985 -0.1101522296667099 0.043920814990997314
0.0031064841896295547 -0.11094456911087038 0.043397676199674606
0.0030977895949035883 -0.11170387268066406 0.04274316877126694
0.003088234690949321 -0.11240997910499571 0.04201264679431915

CELLS 50 150
2 0 1
2 1 2
2 2 3
2 3 4
2 4 5
2 5 6
2 6 7
2 7 8
2 8 9
2 9 10
2 10 11
2 11 12
2 12 13
2 13 14
2 14 15
2 15 16
2 16 17
2 17 18
2 18 19
2 19 20
2 20 21
2 21 22
2 22 23
2 23 24
2 24 25
2 25 26
2 26 27
2 27 28
2 28 29
2 29 30
2 30 31
2 31 32
2 32 33
2 33 34
2 34 35
2 35 36
2 36 37
2 37 38
2 38 39
2 39 40
2 40 41
2 41 42
2 42 43
2 43 44
2 44 45
2 45 46
2 46 47
2 47 48
2 48 49
2 49 50

CELL_TYPES 50
4
4
4
4
4
4
4
4
4
4
4
4
4
4
4
4
4
4
4
4
4
4
4
4
4
4
4
4
4
4
4
4
4
4
4
4
4
4
4
4
4
4
4
4
4
4
4
4
4
4

POINT_DATA 51

SCALARS zone float
LOOKUP_TABLE default
1.0
1.0
1.0
1.0
1.0
1.0
1.0
1.0
1.0
1.0
1.0
1.0
1.0
1.0
1.0
1.0
1.0
1.0
1.0
1.0
1.0
1.0
1.0
1.0
1.0
1.0
1.0
1.0
1.0
1.0
1.0
1.0
1.0
1.0
1.0
1.0
1.0
1.0
1.0
1.0
1.0
1.0
1.0
1.0
1.0
1.0
1.0
1.0
1.0
1.0
1.0

VECTORS normals float
-0.00018154516874346882 -0.001944579416885972 0.0007048025145195425
-0.00031745340675115585 -0.0037890216335654254 0.0015736534260213375
-0.0003203890810254961 -0.0036303887609392405 0.0017873413162305951
-0.00042105361353605986 -0.0035171937197446827 0.0018761890241876245
-0.0004630943294614554 -0.0034434194676578045 0.0018567297374829652
-0.00036171305691823363 -0.003464287146925926 0.0015772436745464802
-0.0001455355522921309 -0.0035055638290941715 0.0012416838435456157
7.072663720464334e-5 -0.00344817410223186 0.001177208381704986
0.00020198317361064258 -0.0033753197640180588 0.0011552211362868547
0.00024425858282484114 -0.0033293424639850855 0.0010593902552500367
0.0002273943391628563 -0.003242552978917957 0.0010756893316283822
0.00017962048877961934 -0.0031463908962905407 0.001117739942856133
0.0001230136549565941 -0.0030788257718086243 0.0010812209220603108
7.320909935515374e-5 -0.0030248204711824656 0.0010074465535581112
3.8772002881160006e-5 -0.002959921257570386 0.0009636031463742257
2.1685751562472433e-5 -0.002876609330996871 0.0009703476680442691
1.9110158973489888e-5 -0.002782508498057723 0.0010067346738651395
2.5710261979838833e-5 -0.0026925194542855024 0.0010318250861018896
3.630685023381375e-5 -0.0026173165533691645 0.0010162903927266598
4.732568413601257e-5 -0.0025565731339156628 0.0009610290289856495
5.6640183174749836e-5 -0.002501742448657751 0.0008895221981219947
6.314866186585277e-5 -0.002443623496219516 0.0008270503021776676
6.649269198533148e-5 -0.002377992495894432 0.000785217562224716
6.683685205643997e-5 -0.0023052722681313753 0.000762861454859376
6.468839274020866e-5 -0.002227736869826913 0.0007537356577813625
6.0754482547054074e-5 -0.00214782333932817 0.0007511434960179031
5.583223173744046e-5 -0.0020677491556853056 0.0007489931304007769
5.072306885267608e-5 -0.0019894179422408342 0.0007420537294819951
4.616025398718193e-5 -0.001914339605718851 0.0007261767168529332
4.268924021744169e-5 -0.001843358972109854 0.0006990418769419193
4.052436997881159e-5 -0.0017762721981853247 0.0006612082943320274
3.9547361666336656e-5 -0.0017118926625698805 0.0006159371114335954
3.943082629120909e-5 -0.0016485084779560566 0.0005679308087565005
3.97539661207702e-5 -0.0015842956490814686 0.0005222015897743404
4.0087012166623026e-5 -0.001517606433480978 0.00048327576951123774
4.004923903266899e-5 -0.0014471597969532013 0.00045467377640306955
3.934526102966629e-5 -0.0013722931034862995 0.0004382155602797866
3.778377140406519e-5 -0.0012937040301039815 0.0004319845174904913
3.528250090312213e-5 -0.0012138456804677844 0.00042924066656269133
3.186270623700693e-5 -0.0011360442731529474 0.00042084557935595507
2.7636049708235078e-5 -0.0010632947087287903 0.00039857075898908073
2.2786460249335505e-5 -0.000997636467218399 0.0003568124957382679
1.7549085896462202e-5 -0.0009407347533851862 0.0002909960167016834
1.21881839731941e-5 -0.0008946468005888165 0.00019546900875866413
6.97543964633951e-6 -0.0008606327464804053 6.676904740743339e-5
2.169919071093318e-6 -0.0008373173186555506 -9.132509148912504e-5
-1.999401547436719e-6 -0.0008202149183489381 -0.000266489339992404
-5.347871592675801e-6 -0.0008024063427001238 -0.0004397134180180728
-7.745714356133249e-6 -0.0007758213905617595 -0.0005888245068490505
-9.124661119130906e-6 -0.0007327047060243785 -0.0006925150519236922
-4.777432877745014e-6 -0.0003530547546688467 -0.0003652609302662313

CELL_DATA 50

VECTORS liftinglineloading               float
0.09001430869102478 -0.024088388308882713 -0.08989908546209335
0.10890344530344011 -0.0342952124774456 -0.1279914677143097
-0.02380356565117836 -0.011861646547913551 -0.04426826536655426
0.13996034860610962 -0.023904530331492424 -0.08921291679143906
-0.06789754331111908 -0.04922361671924591 -0.18370503187179565
-0.8694862127304077 -0.11657650023698807 -0.43506941199302673
-1.9498119354248047 -0.205429345369339 -0.7666727304458618
-3.1610612869262695 -0.28400948643684387 -1.059937834739685
-4.628744125366211 -0.36924999952316284 -1.3780597448349
-5.935855865478516 -0.4354283511638642 -1.6250407695770264
-6.960380554199219 -0.4770562648773193 -1.7803982496261597
-7.772827625274658 -0.5068209767341614 -1.8914815187454224
-8.305181503295898 -0.5176144242286682 -1.931763291358948
-7.969532489776611 -0.4830749034881592 -1.8028600215911867
-7.983357906341553 -0.4604895114898681 -1.718570351600647
-8.12181282043457 -0.44568645954132086 -1.6633244752883911
-8.08322525024414 -0.4254986643791198 -1.5879825353622437
-8.313647270202637 -0.4162488877773285 -1.5534619092941284
-8.441479682922363 -0.4078524708747864 -1.5221260786056519
-8.523407936096191 -0.40489888191223145 -1.5111031532287598
-9.002876281738281 -0.404134064912796 -1.5082489252090454
-9.28685474395752 -0.39050325751304626 -1.4573780298233032
-9.325925827026367 -0.3757508099079132 -1.4023211002349854
-9.506650924682617 -0.3683624565601349 -1.374747395515442
-9.695868492126465 -0.35945820808410645 -1.3415162563323975
-9.941145896911621 -0.3526070713996887 -1.3159475326538086
-10.235230445861816 -0.3447776138782501 -1.2867276668548584
-10.549983978271484 -0.3343721926212311 -1.247894048690796
-10.880500793457031 -0.32332009077072144 -1.2066470384597778
-11.229340553283691 -0.31149810552597046 -1.1625267267227173
-11.369755744934082 -0.29743263125419617 -1.110033631324768
-11.928109169006348 -0.29011860489845276 -1.0827374458312988
-12.009053230285645 -0.2730879783630371 -1.0191782712936401
-12.039922714233398 -0.2619748115539551 -0.9777033329010009
-12.045279502868652 -0.25279396772384644 -0.9434399008750914
-11.99935531616211 -0.24411341547966003 -0.9110437035560608
-11.906119346618652 -0.239313080906868 -0.8931285738945006
-11.766496658325195 -0.2355569303035736 -0.8791103959083557
-11.578433990478516 -0.2296759933233261 -0.8571624755859374
-11.187847137451172 -0.22424006462097168 -0.836875319480896
-10.877453804016113 -0.21795189380645752 -0.8134075403213502
-10.223915100097656 -0.21053157746791842 -0.7857145667076111
-9.23383903503418 -0.23802262544631958 -0.8883125185966493
-7.90682554244995 -0.25503286719322205 -0.9517956376075745
-6.811609745025635 -0.3003339171409607 -1.1208614110946655
-5.6922760009765625 -0.3164186477661133 -1.180890440940857
-4.853196144104004 -0.3268091082572937 -1.2196681499481201
-3.921624183654785 -0.3389149010181427 -1.2648476362228394
-2.9998655319213867 -0.3456900119781494 -1.290132761001587
-1.6296268701553345 -0.360975056886673 -1.3471771478652954