# vtk DataFile Version 4.0
 
ASCII
DATASET UNSTRUCTURED_GRID
POINTS 51 float
0.0029719590675085783 0.00689568929374218 -0.003172669094055891
0.002608868759125471 0.010968602262437344 -0.0024488435592502356
0.0023370522540062666 0.015032120980322361 -0.002109294990077615
0.0019680906552821398 0.01904396153986454 -0.001914220745675266
0.0014949451433494687 0.023000268265604973 -0.0018417559331282971
0.001041901996359229 0.02686486765742302 -0.0016867514932528138
0.0007715190295130014 0.030577832832932476 -0.0011093352222815156
0.0007508308626711369 0.034178368747234344 -0.0003318469680380076
0.0009129723184742035 0.03772745281457901 0.00029985420405864716
0.0011547972681000829 0.04117981344461441 0.0010425710352137685
0.0014014894841238856 0.04455343633890152 0.0017942787380889058
0.0016095859464257958 0.04787176847457886 0.0024219753686338663
0.0017607304034754632 0.05112088471651078 0.003004687139764428
0.0018556131981313229 0.054285671561956406 0.003628071630373597
0.0019071486312896013 0.057367473840713494 0.004284559283405542
0.0019331572111696005 0.06037601083517074 0.004918983206152916
0.0019505200907588003 0.06332025676965714 0.005480477120727301
0.0019713775254786015 0.06620219349861145 0.005957776214927435
0.002001940505579114 0.06901565939188004 0.006385823246091604
0.0020439913496375084 0.07175180315971375 0.0068148262798786155
0.0020965919829905033 0.07440480589866638 0.007277844939380884
0.002157271606847644 0.07697447389364243 0.007775871083140374
0.0022228893358260393 0.07946433126926422 0.008288975805044174
0.0022902570199221373 0.08187849819660187 0.008793827146291733
0.0023565629962831736 0.0842200443148613 0.009272933006286621
0.0024196337908506393 0.08649078756570816 0.009716055355966091
0.002478071954101324 0.08869132399559021 0.010119738057255745
0.002531298203393817 0.09082122147083282 0.010486509650945663
0.0025795181281864643 0.09287915378808975 0.010823880322277546
0.0026236188132315874 0.09486313164234161 0.011143074370920658
0.002664896659553051 0.0967709869146347 0.011456463485956192
0.002704667393118143 0.09860093891620636 0.011774100363254547
0.0027439913246780634 0.10035201162099838 0.012101521715521812
0.0027835292275995016 0.10202416777610779 0.012438924051821232
0.0028234992641955614 0.1036182940006256 0.012781337834894657
0.0028637030627578497 0.10513601452112198 0.013119472190737724
0.0029035976622253656 0.1065795198082924 0.01344097964465618
0.0029423937667161226 0.10795111209154128 0.013732753694057466
0.0029791651759296656 0.10925226658582687 0.013986464589834213
0.0030129586812108755 0.11048279702663422 0.014203133061528208
0.003042890690267086 0.11164079606533052 0.014393582940101624
0.003068230813369155 0.11272304505109788 0.014576083049178125
0.0030884635634720325 0.11372556537389755 0.014773202128708363
0.0031033288687467575 0.11464343965053558 0.015012797899544239
0.003112840000540018 0.11547061055898666 0.015329286456108093
0.0031172798480838537 0.11620087176561356 0.015757782384753227
0.0031171797309070826 0.1168295592069626 0.016324782744050026
0.0031132809817790985 0.11735503375530244 0.017039570957422256
0.0031064841896295547 0.1177796572446823 0.01788879558444023
0.0030977895949035883 0.11810997128486633 0.018835267052054405
0.003088234690949321 0.11835622042417526 0.01982097141444683

CELLS 50 150
2 0 1
2 1 2
2 2 3
2 3 4
2 4 5
2 5 6
2 6 7
2 7 8
2 8 9
2 9 10
2 10 11
2 11 12
2 12 13
2 13 14
2 14 15
2 15 16
2 16 17
2 17 18
2 18 19
2 19 20
2 20 21
2 21 22
2 22 23
2 23 24
2 24 25
2 25 26
2 26 27
2 27 28
2 28 29
2 29 30
2 30 31
2 31 32
2 32 33
2 33 34
2 34 35
2 35 36
2 36 37
2 37 38
2 38 39
2 39 40
2 40 41
2 41 42
2 42 43
2 43 44
2 44 45
2 45 46
2 46 47
2 47 48
2 48 49
2 49 50

CELL_TYPES 50
4
4
4
4
4
4
4
4
4
4
4
4
4
4
4
4
4
4
4
4
4
4
4
4
4
4
4
4
4
4
4
4
4
4
4
4
4
4
4
4
4
4
4
4
4
4
4
4
4
4

POINT_DATA 51

SCALARS zone float
LOOKUP_TABLE default
1.0
1.0
1.0
1.0
1.0
1.0
1.0
1.0
1.0
1.0
1.0
1.0
1.0
1.0
1.0
1.0
1.0
1.0
1.0
1.0
1.0
1.0
1.0
1.0
1.0
1.0
1.0
1.0
1.0
1.0
1.0
1.0
1.0
1.0
1.0
1.0
1.0
1.0
1.0
1.0
1.0
1.0
1.0
1.0
1.0
1.0
1.0
1.0
1.0
1.0
1.0

VECTORS normals float
-0.00018154516874346882 0.002036456484347582 0.00036191282561048865
-0.00031745340675115585 0.0040682158432900906 0.0005316870519891381
-0.0003203890810254961 0.004037679638713598 0.00026731134857982397
-0.00042105361353605986 0.003984073642641306 0.00013376954302657396
-0.0004630943294614554 0.003910453524440527 0.00011373464076314123
-0.00036171305691823363 0.0037887825164943938 0.0003662104136310518
-0.0001455355522921309 0.0036567493807524443 0.0006774522480554879
7.072663720464334e-5 0.0035748104564845566 0.0007045946549624205
0.00020198317361064258 0.0035007232800126076 0.0006872089579701424
0.00024425858282484114 0.0034129901323467497 0.0007472122670151293
0.0002273943391628563 0.003345977980643511 0.0006897022249177098
0.00017962048877961934 0.0032837244216352697 0.0006052042590454221
0.0001230136549565941 0.0032069517765194178 0.0006030480726622045
7.320909935515374e-5 0.003123294562101364 0.0006399358971975744
3.8772002881160006e-5 0.003045168472453952 0.0006454557878896594
2.1685751562472433e-5 0.0029763905331492424 0.0005979589186608791
1.9110158973489888e-5 0.0029130904003977776 0.0005193965043872595
2.5710261979838833e-5 0.002847702708095312 0.0004526730335783213
3.630685023381375e-5 0.002774807857349515 0.00042852506157942116
4.732568413601257e-5 0.0026945718564093113 0.0004460110212676227
5.6640183174749836e-5 0.0026113337371498346 0.00048052243073470885
6.314866186585277e-5 0.002529765246436 0.0005055652000010014
6.649269198533148e-5 0.0024520105216652155 0.000508977856952697
6.683685205643997e-5 0.0023778551258146763 0.0004919787752442062
6.468839274020866e-5 0.0023061446845531464 0.00046111422125250096
6.0754482547054074e-5 0.0022356414701789618 0.00042340237996540964
5.583223173744046e-5 0.002165219746530056 0.00038522746763192117
5.072306885267608e-5 0.0020939132664352655 0.0003520715399645269
4.616025398718193e-5 0.0020209550857543945 0.0003282823308836669
4.268924021744169e-5 0.0019459165632724764 0.0003162914654240012
4.052436997881159e-5 0.0018689010757952929 0.0003155129379592836
3.9547361666336656e-5 0.0017905110726132987 0.0003225291147828102
3.943082629120909e-5 0.0017116157105192544 0.00033241178607568145
3.97539661207702e-5 0.0016331410733982918 0.000339907972374931
4.0087012166623026e-5 0.001555923605337739 0.00034027412766590714
4.004923903266899e-5 0.0014806140679866076 0.00032982081756927073
3.934526102966629e-5 0.0014075484359636903 0.00030664075165987015
3.778377140406519e-5 0.0013363728066906333 0.0002727424434851855
3.528250090312213e-5 0.0012658415362238884 0.00023518955276813358
3.186270623700693e-5 0.001194266020320356 0.0002035592042375356
2.7636049708235078e-5 0.0011201256420463324 0.00018647496472112834
2.2786460249335505e-5 0.0010423847706988454 0.0001898095797514543
1.7549085896462202e-5 0.0009601982310414314 0.000218357439734973
1.21881839731941e-5 0.0008725213119760156 0.0002780422510113567
6.97543964633951e-6 0.0007787143695168197 0.00037249267916195095
2.169919071093318e-6 0.00067947554634884 0.0004977484932169318
-1.999401547436719e-6 0.0005770822754129767 0.00064089399529621
-5.347871592675801e-6 0.0004750475927721709 0.000782006187364459
-7.745714356133249e-6 0.0003774687647819519 0.0008978476980701089
-9.124661119130906e-6 0.0002882833359763026 0.0009660879732109606
-4.777432877745014e-6 0.00012312392937019467 0.0004928526468575001

CELL_DATA 50

VECTORS liftinglineloading               float
0.04589524120092392 -0.016094528138637543 0.06006559357047081
-0.01839413121342659 -0.0005258987657725811 0.001962680835276842
0.06094256043434143 -0.019172757863998413 0.07155370712280273
0.023587029427289963 -0.03345575928688049 0.12485858798027037
-0.374513179063797 -0.07433091104030609 0.2774067521095276
-1.158706545829773 -0.1345539093017578 0.5021620392799377
-2.194455862045288 -0.20877507328987122 0.7791591882705688
-3.3363492488861084 -0.28309452533721924 1.0565232038497925
-4.730360984802246 -0.3649153411388397 1.3618825674057007
-5.97102165222168 -0.4297123253345489 1.6037081480026245
-6.952384948730469 -0.4715912938117981 1.760002613067627
-7.729929924011231 -0.5004234313964844 1.8676058053970337
-8.257265090942383 -0.5114775896072388 1.9088604450225828
-7.974759578704834 -0.479192852973938 1.7883720397949219
-8.069160461425781 -0.4595918655395507 1.7152202129364014
-8.288069725036621 -0.44702923297882075 1.6683357954025266
-8.352331161499023 -0.4285203516483307 1.5992597341537476
-8.63805866241455 -0.41851750016212463 1.5619285106658936
-8.876185417175293 -0.4111890196800232 1.5345783233642578
-8.969541549682617 -0.4096228778362274 1.528733491897583
-9.330657958984375 -0.4058654308319092 1.5147104263305664
-9.604918479919434 -0.39204534888267517 1.4631332159042358
-9.618165969848633 -0.37659040093421936 1.4054545164108276
-9.772175788879395 -0.3684883415699005 1.375217318534851
-9.931487083435059 -0.3587157726287842 1.3387454748153687
-10.16064167022705 -0.35131341218948364 1.311119556427002
-10.427111625671387 -0.3431982398033142 1.2808332443237305
-10.760832786560059 -0.33242669701576233 1.240633249282837
-11.11325454711914 -0.32106828689575195 1.1982431411743164
-11.491500854492188 -0.30869653820991516 1.1520711183547974
-11.649139404296875 -0.2939814031124115 1.0971535444259644
-12.228697776794434 -0.2855040431022644 1.0655155181884766
-12.295366287231445 -0.267734557390213 0.9991989135742188
-12.344620704650879 -0.25659826397895813 0.9576377272605896
-12.366507530212402 -0.2475613355636597 0.9239115118980408
-12.337404251098633 -0.23919659852981567 0.8926938772201538
-12.258842468261719 -0.23484216630458835 0.876442849636078
-12.141173362731934 -0.23147673904895782 0.8638829588890076
-11.95980167388916 -0.22605112195014954 0.843634307384491
-11.57348346710205 -0.2210319638252258 0.8249024748802185
-11.270216941833496 -0.21507088840007782 0.8026554584503174
-10.607213973999023 -0.20916904509067535 0.7806294560432434
-9.586806297302246 -0.237443208694458 0.8861501216888428
-8.248931884765625 -0.25552603602409363 0.9536361694335938
-7.134738445281983 -0.30276724696159363 1.129942774772644
-5.997365951538086 -0.3198765814304352 1.1937956809997559
-5.151848793029785 -0.3307928442955017 1.2345356941223145
-4.1876540184021 -0.3429282605648041 1.2798256874084473
-3.234299421310425 -0.35005471110343933 1.3064219951629639
-1.781314492225647 -0.36553293466567993 1.364187479019165