# vtk DataFile Version 4.0
 
ASCII
DATASET UNSTRUCTURED_GRID
POINTS 51 float
0.0029719590675085783 0.007145965471863747 -0.0025595971383154392
0.002608868759125471 0.011140294373035431 -0.0014835481997579336
0.0023370522540062666 0.015158756636083126 -0.0007911329157650471
0.0019680906552821398 0.019138328731060028 -0.0002471459738444537
0.0014949451433494687 0.023073265329003334 0.0001698579144431278
0.001041901996359229 0.02690964937210083 0.0006610946729779243
0.0007715190295130014 0.0305581595748663 0.001559919910505414
0.0007508308626711369 0.0340772308409214 0.0026482567191123962
0.0009129723184742035 0.037557754665613174 0.0035868773702532053
0.0011547972681000829 0.040932245552539825 0.004627660848200321
0.0014014894841238856 0.044227514415979385 0.005670538637787104
0.0016095859464257958 0.047478511929512024 0.006585058756172656
0.0017607304034754632 0.05066447705030441 0.007448731921613216
0.0018556131981313229 0.05376289039850236 0.008345574140548706
0.0019071486312896013 0.05677574872970581 0.009268159978091717
0.0019331572111696005 0.05971754342317581 0.010162380523979664
0.0019505200907588003 0.06260164827108383 0.01097834575921297
0.0019713775254786015 0.06543101370334625 0.011705005541443825
0.002001940505579114 0.06819647550582886 0.012376634404063225
0.0020439913496375084 0.0708848163485527 0.013042476028203962
0.0020965919829905033 0.07348736375570297 0.01373495627194643
0.002157271606847644 0.07600384950637817 0.01445504929870367
0.0022228893358260393 0.07843951880931854 0.015183206647634506
0.0022902570199221373 0.08080048859119415 0.015896543860435486
0.0023565629962831736 0.0830913707613945 0.016577906906604767
0.0024196337908506393 0.08531484752893448 0.017217250540852547
0.002478071954101324 0.08747183531522751 0.017811186611652374
0.002531298203393817 0.08956166356801987 0.018362196162343025
0.0025795181281864643 0.09158235788345337 0.01887764409184456
0.0026236188132315874 0.09353096783161163 0.01936853863298893
0.002664896659553051 0.0954042449593544 0.019847014918923378
0.002704667393118143 0.09719955176115036 0.020322933793067932
0.0027439913246780634 0.09891542047262192 0.0208017248660326
0.0027835292275995016 0.10055181384086609 0.021283581852912903
0.0028234992641955614 0.10211002081632613 0.021763630211353302
0.0028637030627578497 0.10359250009059906 0.02223275601863861
0.0029035976622253656 0.1050024926662445 0.02267885021865368
0.0029423937667161226 0.10634343326091768 0.023089056834578514
0.0029791651759296656 0.10761752724647522 0.02345520444214344
0.0030129586812108755 0.10882449150085449 0.023778295144438744
0.003042890690267086 0.10996148735284805 0.02406894788146019
0.003068230813369155 0.11102370917797089 0.024345077574253082
0.0030884635634720325 0.11200523376464844 0.02462882176041603
0.0031033288687467575 0.11289873719215393 0.024947503581643105
0.003112840000540018 0.1136951744556427 0.025334879755973816
0.0031172798480838537 0.11438531428575516 0.025825392454862598
0.0031171797309070826 0.11496219038963316 0.02644502930343151
0.0031132809817790985 0.11542336642742157 0.027202894911170006
0.0031064841896295547 0.11577235907316208 0.02808589674532413
0.0030977895949035883 0.11601892858743668 0.02905755490064621
0.003088234690949321 0.11617832630872728 0.030060971155762672

CELLS 50 150
2 0 1
2 1 2
2 2 3
2 3 4
2 4 5
2 5 6
2 6 7
2 7 8
2 8 9
2 9 10
2 10 11
2 11 12
2 12 13
2 13 14
2 14 15
2 15 16
2 16 17
2 17 18
2 18 19
2 19 20
2 20 21
2 21 22
2 22 23
2 23 24
2 24 25
2 25 26
2 26 27
2 27 28
2 28 29
2 29 30
2 30 31
2 31 32
2 32 33
2 33 34
2 34 35
2 35 36
2 36 37
2 37 38
2 38 39
2 39 40
2 40 41
2 41 42
2 42 43
2 43 44
2 44 45
2 45 46
2 46 47
2 47 48
2 48 49
2 49 50

CELL_TYPES 50
4
4
4
4
4
4
4
4
4
4
4
4
4
4
4
4
4
4
4
4
4
4
4
4
4
4
4
4
4
4
4
4
4
4
4
4
4
4
4
4
4
4
4
4
4
4
4
4
4
4

POINT_DATA 51

SCALARS zone float
LOOKUP_TABLE default
1.0
1.0
1.0
1.0
1.0
1.0
1.0
1.0
1.0
1.0
1.0
1.0
1.0
1.0
1.0
1.0
1.0
1.0
1.0
1.0
1.0
1.0
1.0
1.0
1.0
1.0
1.0
1.0
1.0
1.0
1.0
1.0
1.0
1.0
1.0
1.0
1.0
1.0
1.0
1.0
1.0
1.0
1.0
1.0
1.0
1.0
1.0
1.0
1.0
1.0
1.0

VECTORS normals float
-0.00018154516874346882 0.001997164450585842 0.0005380245274864137
-0.00031745340675115585 0.00400639558210969 0.0008842321694828569
-0.0003203890810254961 0.003999017179012299 0.0006182010984048247
-0.00042105361353605986 0.003957254346460104 0.00048049539327621465
-0.0004630943294614554 0.0038856605533510447 0.00045412033796310425
-0.00036171305691823363 0.0037424475885927673 0.0006950310198590159
-0.0001455355522921309 0.0035837905015796427 0.000993581023067236
7.072663720464334e-5 0.0034997977782040834 0.0010134787298738956
0.00020198317361064258 0.003427507821470499 0.0009897020645439625
0.00024425858282484114 0.0033348789438605313 0.0010418306337669492
0.0002273943391628563 0.0032731338869780306 0.000978698837570846
0.00017962048877961934 0.0032184817828238015 0.0008890967001207173
0.0001230136549565941 0.003142189234495163 0.0008802575175650418
7.320909935515374e-5 0.0030556353740394115 0.0009097138536162674
3.8772002881160006e-5 0.0029773255810141563 0.0009084035409614445
2.1685751562472433e-5 0.0029129490721970797 0.0008550930651836097
1.9110158973489888e-5 0.0028567370027303696 0.0007713125669397414
2.5710261979838833e-5 0.002797413384541869 0.0006991441478021443
3.630685023381375e-5 0.002726900391280651 0.0006687348359264433
4.732568413601257e-5 0.002645445754751563 0.0006791612249799073
5.6640183174749836e-5 0.002559516578912735 0.0007062866352498531
6.314866186585277e-5 0.002476075664162636 0.0007241248968057334
6.649269198533148e-5 0.0023983195424079895 0.0007207478047348559
6.683685205643997e-5 0.0023259278386831284 0.000697350362315774
6.468839274020866e-5 0.002257180167362094 0.0006603532820008695
6.0754482547054074e-5 0.0021902320440858603 0.0006166402017697692
5.583223173744046e-5 0.0021234056912362576 0.0005724729271605611
5.072306885267608e-5 0.002055260119959712 0.0005332283908501267
4.616025398718193e-5 0.001984653063118458 0.0005031709442846477
4.268924021744169e-5 0.0019109451677650213 0.0004846856754738838
4.052436997881159e-5 0.0018342905677855015 0.0004771977837663144
3.9547361666336656e-5 0.001755587407387793 0.00047735508996993303
3.943082629120909e-5 0.0016761308070272207 0.0004803239717148245
3.97539661207702e-5 0.0015973015688359735 0.00048095211968757207
4.0087012166623026e-5 0.0015203460352495313 0.00047458696644753223
4.004923903266899e-5 0.0014462340623140335 0.00045760977081954474
3.934526102966629e-5 0.0013754668179899454 0.0004281498258933425
3.778377140406519e-5 0.0013075164752081037 0.00038817714084871113
3.528250090312213e-5 0.0012405265588313341 0.0003446199407335371
3.186270623700693e-5 0.0011719801696017385 0.00030687174876220524
2.7636049708235078e-5 0.001099610817618668 0.00028339074924588203
2.2786460249335505e-5 0.0010218751849606633 0.00027993711410090327
1.7549085896462202e-5 0.0009375132503919302 0.00030121332383714616
1.21881839731941e-5 0.0008449681336060167 0.0003530294634401798
6.97543964633951e-6 0.0007432862184941769 0.0004389446694403887
2.169919071093318e-6 0.0006335082580335438 0.0005550745991058648
-1.999401547436719e-6 0.0005190287483856082 0.0006887512281537056
-5.347871592675801e-6 0.00040508355596102774 0.0008204335463233292
-7.745714356133249e-6 0.000297779799439013 0.0009273296454921364
-9.124661119130906e-6 0.00020298620802350342 0.0009875373216345906
-4.777432877745014e-6 7.970046863192692e-5 0.0005017081275582314

CELL_DATA 50

VECTORS liftinglineloading               float
0.09705574065446854 -0.03399127721786499 0.09339027106761932
0.15628290176391602 -0.0604473128914833 0.1660776287317276
-0.04649176448583603 -0.013170995749533175 0.03618701174855232
0.1410531997680664 -0.029022179543972012 0.07973778247833252
0.018322404474020004 -0.053697288036346436 0.14753207564353943
-0.7110908627510071 -0.13822779059410095 0.379777729511261
-1.7430721521377561 -0.26221662759780884 0.7204342484474182
-2.9393699169158936 -0.36967581510543823 1.0156759023666382
-4.3538947105407715 -0.4817966818809509 1.3237255811691284
-5.602993011474609 -0.5678143501281738 1.5600571632385254
-6.540901184082031 -0.6165167689323425 1.6938660144805908
-7.3379693031311035 -0.6578036546707153 1.8073006868362427
-7.912602901458739 -0.6740794777870178 1.8520182371139524
-7.5577239990234375 -0.6262767314910889 1.7206811904907224
-7.515848636627198 -0.5923678278923035 1.627517342567444
-7.660075664520264 -0.573554277420044 1.5758274793624878
-7.614407062530518 -0.5487006902694702 1.5075427293777466
-7.8974928855896 -0.5410082340240479 1.4864078760147095
-8.016517639160156 -0.5304509997367859 1.457402229309082
-8.353198051452637 -0.532114565372467 1.461972713470459
-8.772254943847656 -0.5309606194496155 1.458802342414856
-9.101737976074219 -0.5139780044555664 1.4121428728103638
-9.195731163024902 -0.4956602156162262 1.3618152141571045
-9.426092147827148 -0.4867156744003296 1.3372403383255005
-9.659215927124023 -0.4754888415336609 1.3063948154449463
-9.938074111938477 -0.46657881140708923 1.2819147109985352
-10.258458137512207 -0.45616102218627935 1.253292202949524
-10.551680564880371 -0.442210167646408 1.214962363243103
-10.876276016235352 -0.4276182949542999 1.1748716831207275
-11.21632194519043 -0.41205906867980957 1.1321229934692383
-11.3465576171875 -0.3935977518558502 1.081400990486145
-11.89441204071045 -0.38417288661003113 1.0555063486099243
-11.935590744018555 -0.362508624792099 0.9959842562675476
-11.956604957580566 -0.3479195833206177 0.9559012055397034
-11.950650215148926 -0.33585038781166077 0.9227414131164552
-11.891480445861816 -0.32439085841178894 0.89125657081604
-11.784008979797363 -0.31799572706222534 0.8736860156059266
-11.857489585876465 -0.3108914792537689 0.8541673421859742
-11.637630462646484 -0.30372679233551025 0.8344824910163878
-11.230140686035156 -0.2966790795326233 0.8151190876960754
-10.906037330627441 -0.28844332695007324 0.7924914956092834
-10.240078926086426 -0.2786717116832733 0.7656442523002625
-9.239267349243164 -0.315032958984375 0.865545928478241
-8.059266090393066 -0.337769478559494 0.9280139803886414
-6.957450866699218 -0.39890801906585693 1.095990777015686
-5.832584857940674 -0.42089575529098505 1.1564016342163086
-4.988814830780029 -0.4349981248378753 1.1951475143432617
-4.090007305145264 -0.4521554410457611 1.2422869205474854
-3.151052951812744 -0.4615631997585297 1.2681344747543335
-1.7302380800247192 -0.48215171694755554 1.324700951576233