# vtk DataFile Version 4.0
 
ASCII
DATASET UNSTRUCTURED_GRID
POINTS 51 float
0.0029719590675085783 -0.004385507665574551 0.006195456720888615
0.002608868759125471 -0.008274666033685207 0.007605061866343021
0.0023370522540062666 -0.011963550932705402 0.00934276357293129
0.0019680906552821398 -0.015535444021224974 0.011179744265973568
0.0014949451433494687 -0.01899793930351734 0.013095141388475895
0.001041901996359229 -0.02242228202521801 0.014893203973770142
0.0007715190295130014 -0.025926511734724045 0.016249628737568855
0.0007508308626711369 -0.029433410614728924 0.017376571893692017
0.0009129723184742035 -0.0328228622674942 0.01860404573380947
0.0011547972681000829 -0.036184050142765045 0.01968701370060444
0.0014014894841238856 -0.039481546729803085 0.020722826942801476
0.0016095859464257958 -0.042669154703617096 0.021838393062353134
0.0017607304034754632 -0.04577432572841644 0.022958306595683098
0.0018556131981313229 -0.048826806247234344 0.024000834673643112
0.0019071486312896013 -0.051823969930410385 0.024973198771476746
0.0019331572111696005 -0.05474665015935898 0.025928040966391567
0.0019505200907588003 -0.05757718533277511 0.026913894340395927
0.0019713775254786015 -0.06031166762113571 0.0279415100812912
0.002001940505579114 -0.06296222656965256 0.028977544978260994
0.0020439913496375084 -0.06554630398750305 0.02997408993542194
0.0020965919829905033 -0.06807537376880646 0.03089960291981697
0.002157271606847644 -0.07054978609085083 0.03175313398241997
0.0022228893358260393 -0.07296261936426163 0.03255370259284973
0.0022902570199221373 -0.0753057673573494 0.03332357108592987
0.0023565629962831736 -0.07757316529750824 0.034079425036907196
0.0024196337908506393 -0.07976124435663223 0.03483104333281517
0.002478071954101324 -0.08186881244182587 0.03558171167969704
0.002531298203393817 -0.08389674127101898 0.03632902726531029
0.0025795181281864643 -0.0858476459980011 0.03706582263112068
0.0026236188132315874 -0.08772542327642441 0.037781380116939545
0.002664896659553051 -0.08953436464071274 0.038463905453681946
0.002704667393118143 -0.09127796441316605 0.03910379856824875
0.0027439913246780634 -0.09295815229415894 0.039695776998996735
0.0027835292275995016 -0.09457498043775558 0.04023965820670128
0.0028234992641955614 -0.0961267426609993 0.040740180760622025
0.0028637030627578497 -0.09761019796133041 0.04120621085166931
0.0029035976622253656 -0.0990210622549057 0.041649527847766876
0.0029423937667161226 -0.10035478323698044 0.042082641273736954
0.0029791651759296656 -0.10160847008228303 0.04251349717378616
0.0030129586812108755 -0.1027824729681015 0.042941123247146606
0.003042890690267086 -0.10388055443763733 0.04335518926382065
0.003068230813369155 -0.10490906238555908 0.043738264590501785
0.0030884635634720325 -0.10587582737207411 0.04406881332397461
0.0031033288687467575 -0.10679053515195845 0.044320255517959595
0.003112840000540018 -0.10766512155532837 0.0444597527384758
0.0031172798480838537 -0.10851179808378221 0.04445379599928856
0.0031171797309070826 -0.10933975875377655 0.04427710175514221
0.0031132809817790985 -0.1101522296667099 0.043920814990997314
0.0031064841896295547 -0.11094456911087038 0.043397676199674606
0.0030977895949035883 -0.11170387268066406 0.04274316877126694
0.003088234690949321 -0.11240997910499571 0.04201264679431915

CELLS 50 150
2 0 1
2 1 2
2 2 3
2 3 4
2 4 5
2 5 6
2 6 7
2 7 8
2 8 9
2 9 10
2 10 11
2 11 12
2 12 13
2 13 14
2 14 15
2 15 16
2 16 17
2 17 18
2 18 19
2 19 20
2 20 21
2 21 22
2 22 23
2 23 24
2 24 25
2 25 26
2 26 27
2 27 28
2 28 29
2 29 30
2 30 31
2 31 32
2 32 33
2 33 34
2 34 35
2 35 36
2 36 37
2 37 38
2 38 39
2 39 40
2 40 41
2 41 42
2 42 43
2 43 44
2 44 45
2 45 46
2 46 47
2 47 48
2 48 49
2 49 50

CELL_TYPES 50
4
4
4
4
4
4
4
4
4
4
4
4
4
4
4
4
4
4
4
4
4
4
4
4
4
4
4
4
4
4
4
4
4
4
4
4
4
4
4
4
4
4
4
4
4
4
4
4
4
4

POINT_DATA 51

SCALARS zone float
LOOKUP_TABLE default
1.0
1.0
1.0
1.0
1.0
1.0
1.0
1.0
1.0
1.0
1.0
1.0
1.0
1.0
1.0
1.0
1.0
1.0
1.0
1.0
1.0
1.0
1.0
1.0
1.0
1.0
1.0
1.0
1.0
1.0
1.0
1.0
1.0
1.0
1.0
1.0
1.0
1.0
1.0
1.0
1.0
1.0
1.0
1.0
1.0
1.0
1.0
1.0
1.0
1.0
1.0

VECTORS normals float
-0.00018154516874346882 -0.001944579416885972 0.0007048025145195425
-0.00031745340675115585 -0.0037890216335654254 0.0015736534260213375
-0.0003203890810254961 -0.0036303887609392405 0.0017873413162305951
-0.00042105361353605986 -0.0035171937197446827 0.0018761890241876245
-0.0004630943294614554 -0.0034434194676578045 0.0018567297374829652
-0.00036171305691823363 -0.003464287146925926 0.0015772436745464802
-0.0001455355522921309 -0.0035055638290941715 0.0012416838435456157
7.072663720464334e-5 -0.00344817410223186 0.001177208381704986
0.00020198317361064258 -0.0033753197640180588 0.0011552211362868547
0.00024425858282484114 -0.0033293424639850855 0.0010593902552500367
0.0002273943391628563 -0.003242552978917957 0.0010756893316283822
0.00017962048877961934 -0.0031463908962905407 0.001117739942856133
0.0001230136549565941 -0.0030788257718086243 0.0010812209220603108
7.320909935515374e-5 -0.0030248204711824656 0.0010074465535581112
3.8772002881160006e-5 -0.002959921257570386 0.0009636031463742257
2.1685751562472433e-5 -0.002876609330996871 0.0009703476680442691
1.9110158973489888e-5 -0.002782508498057723 0.0010067346738651395
2.5710261979838833e-5 -0.0026925194542855024 0.0010318250861018896
3.630685023381375e-5 -0.0026173165533691645 0.0010162903927266598
4.732568413601257e-5 -0.0025565731339156628 0.0009610290289856495
5.6640183174749836e-5 -0.002501742448657751 0.0008895221981219947
6.314866186585277e-5 -0.002443623496219516 0.0008270503021776676
6.649269198533148e-5 -0.002377992495894432 0.000785217562224716
6.683685205643997e-5 -0.0023052722681313753 0.000762861454859376
6.468839274020866e-5 -0.002227736869826913 0.0007537356577813625
6.0754482547054074e-5 -0.00214782333932817 0.0007511434960179031
5.583223173744046e-5 -0.0020677491556853056 0.0007489931304007769
5.072306885267608e-5 -0.0019894179422408342 0.0007420537294819951
4.616025398718193e-5 -0.001914339605718851 0.0007261767168529332
4.268924021744169e-5 -0.001843358972109854 0.0006990418769419193
4.052436997881159e-5 -0.0017762721981853247 0.0006612082943320274
3.9547361666336656e-5 -0.0017118926625698805 0.0006159371114335954
3.943082629120909e-5 -0.0016485084779560566 0.0005679308087565005
3.97539661207702e-5 -0.0015842956490814686 0.0005222015897743404
4.0087012166623026e-5 -0.001517606433480978 0.00048327576951123774
4.004923903266899e-5 -0.0014471597969532013 0.00045467377640306955
3.934526102966629e-5 -0.0013722931034862995 0.0004382155602797866
3.778377140406519e-5 -0.0012937040301039815 0.0004319845174904913
3.528250090312213e-5 -0.0012138456804677844 0.00042924066656269133
3.186270623700693e-5 -0.0011360442731529474 0.00042084557935595507
2.7636049708235078e-5 -0.0010632947087287903 0.00039857075898908073
2.2786460249335505e-5 -0.000997636467218399 0.0003568124957382679
1.7549085896462202e-5 -0.0009407347533851862 0.0002909960167016834
1.21881839731941e-5 -0.0008946468005888165 0.00019546900875866413
6.97543964633951e-6 -0.0008606327464804053 6.676904740743339e-5
2.169919071093318e-6 -0.0008373173186555506 -9.132509148912504e-5
-1.999401547436719e-6 -0.0008202149183489381 -0.000266489339992404
-5.347871592675801e-6 -0.0008024063427001238 -0.0004397134180180728
-7.745714356133249e-6 -0.0007758213905617595 -0.0005888245068490505
-9.124661119130906e-6 -0.0007327047060243785 -0.0006925150519236922
-4.777432877745014e-6 -0.0003530547546688467 -0.0003652609302662313

CELL_DATA 50

VECTORS liftinglineloading               float
0.04193523898720741 -0.015200772322714329 -0.05673005431890488
-0.018554523587226868 -0.0005146202747710049 -0.0019205890130251646
0.05883871391415595 -0.02033780887722969 -0.07590173184871674
-0.004045628476887941 -0.03558754920959473 -0.13281454145908356
-0.42544466257095337 -0.07815703749656677 -0.2916860282421112
-1.2125232219696045 -0.13795757293701172 -0.5148646831512451
-2.2653555870056152 -0.21105888485908508 -0.7876824736595154
-3.3980391025543213 -0.2846485674381256 -1.062322974205017
-4.8289570808410645 -0.36672282218933105 -1.3686281442642212
-6.047739028930664 -0.43115836381912237 -1.609104871749878
-7.002460956573487 -0.4729589521884918 -1.7651067972183228
-7.830554485321046 -0.5025782585144043 -1.8756476640701294
-8.33846378326416 -0.5129966735839844 -1.9145296812057495
-8.057550430297852 -0.4810583293437958 -1.7953341007232664
-8.189083099365234 -0.4625498950481415 -1.726259708404541
-8.392729759216309 -0.44959136843681335 -1.6778979301452637
-8.43725299835205 -0.430368721485138 -1.6061580181121826
-8.693183898925781 -0.4194968640804291 -1.5655837059020996
-8.911092758178711 -0.411795288324356 -1.5368409156799316
-8.982808113098145 -0.409933716058731 -1.5298935174942017
-9.491801261901855 -0.40732699632644653 -1.5201650857925415
-9.742288589477539 -0.3932182788848877 -1.4675105810165405
-9.721354484558105 -0.3772975504398346 -1.4080936908721924
-9.838955879211426 -0.36880630254745483 -1.37640380859375
-9.963153839111328 -0.35876786708831787 -1.338939905166626
-10.163082122802734 -0.3513038158416748 -1.3110836744308472
-10.438688278198242 -0.3430842459201813 -1.2804077863693237
-10.722145080566406 -0.3326091468334198 -1.2413142919540405
-11.020421028137207 -0.3215601444244385 -1.2000788450241089
-11.371201515197754 -0.30956584215164185 -1.1553155183792114
-11.512618064880371 -0.2952690124511719 -1.101958990097046
-12.073406219482422 -0.2874942719936371 -1.0729432106018066
-12.138577461242676 -0.2702510356903076 -1.008590579032898
-12.208526611328125 -0.25875070691108704 -0.9656707644462584
-12.230445861816406 -0.2495833784341812 -0.9314578175544738
-12.19985580444336 -0.24103917181491855 -0.8995704650878906
-12.118709564208984 -0.23648175597190854 -0.8825619220733643
-11.987732887268066 -0.23293368518352509 -0.8693203330039978
-11.813947677612305 -0.2273314595222473 -0.8484125137329103
-11.440155982971191 -0.222056046128273 -0.828724443912506
-11.085810661315918 -0.21603605151176453 -0.8062574863433838
-10.428114891052246 -0.20948816835880277 -0.7818204760551453
-9.420352935791016 -0.23740877211093903 -0.8860216140747069
-8.085780143737793 -0.25502651929855347 -0.9517719149589537
-6.97776460647583 -0.30140358209609985 -1.124853491783142
-5.846279621124268 -0.3180468678474426 -1.186967134475708
-4.995230197906494 -0.3286358714103699 -1.2264858484268188
-4.02471399307251 -0.3403923511505127 -1.2703615427017212
-3.088527202606201 -0.34733736515045166 -1.2962807416915894
-1.6852446794509888 -0.36271733045578003 -1.3536795377731323