# vtk DataFile Version 4.0
 
ASCII
DATASET UNSTRUCTURED_GRID
POINTS 51 float
0.0029719590675085783 -0.004321893211454153 -0.006240000016987324
0.002608868759125471 -0.0043163178488612175 -0.01037672720849514
0.0023370522540062666 -0.004687550477683544 -0.014437473379075527
0.0019680906552821398 -0.005192088428884745 -0.018422240391373634
0.0014949451433494687 -0.005807730369269848 -0.022331025451421738
0.001041901996359229 -0.006326161324977875 -0.026163829490542415
0.0007715190295130014 -0.006402266677469015 -0.029920652508735657
0.0007508308626711369 -0.006261816713958979 -0.03360149636864662
0.0009129723184742035 -0.006256004795432091 -0.03720635920763016
0.0011547972681000829 -0.006124067585915327 -0.040735241025686264
0.0014014894841238856 -0.005969603080302477 -0.04418814182281494
0.0016095859464257958 -0.005927665159106255 -0.04756506159901619
0.0017607304034754632 -0.005918008740991354 -0.05086600035429001
0.0018556131981313229 -0.005853655282407999 -0.054090958088636405
0.0019071486312896013 -0.005742290057241917 -0.05723993852734566
0.0019331572111696005 -0.005639931652694941 -0.06031293421983719
0.0019505200907588003 -0.005598230287432671 -0.06330995261669159
0.0019713775254786015 -0.005628625862300396 -0.06623098999261856
0.002001940505579114 -0.005695635452866554 -0.0690760463476181
0.0020439913496375084 -0.005748277064412832 -0.07184511423110962
0.0020965919829905033 -0.00575298024341464 -0.0745382085442543
0.002157271606847644 -0.005708739161491394 -0.07715532183647156
0.0022228893358260393 -0.005635789595544338 -0.07969645410776138
0.0022902570199221373 -0.005557822994887829 -0.08216160535812378
0.0023565629962831736 -0.005492601078003645 -0.08455078303813934
0.0024196337908506393 -0.0054505206644535065 -0.08686397224664688
0.002478071954101324 -0.0054350909776985645 -0.08910118043422699
0.002531298203393817 -0.00544374343007803 -0.09126240760087967
0.0025795181281864643 -0.005468853749334812 -0.09334765374660492
0.0026236188132315874 -0.005499023944139481 -0.09535692632198334
0.002664896659553051 -0.005521690938621759 -0.09729021042585373
0.002704667393118143 -0.005526647437363863 -0.09914752095937729
0.0027439913246780634 -0.00550827058032155 -0.10092884302139282
0.0027835292275995016 -0.0054663619957864285 -0.10263418406248094
0.0028234992641955614 -0.005405966658145189 -0.10426355153322218
0.0028637030627578497 -0.005336519330739975 -0.10581693798303606
0.0029035976622253656 -0.005270558409392834 -0.10729433596134187
0.0029423937667161226 -0.005221391096711159 -0.10869576036930083
0.0029791651759296656 -0.005197477992624044 -0.1100212037563324
0.0030129586812108755 -0.0051977806724607944 -0.11127065867185593
0.003042890690267086 -0.005211309064179659 -0.11244414001703264
0.003068230813369155 -0.005219512153416872 -0.11354164034128189
0.0030884635634720325 -0.005199473351240158 -0.11456315964460372
0.0031033288687467575 -0.005122905131429434 -0.11550869792699814
0.003112840000540018 -0.004954860545694828 -0.11637825518846512
0.0031172798480838537 -0.004659682512283325 -0.11717183142900467
0.0031171797309070826 -0.004210466984659433 -0.11788942664861679
0.0031132809817790985 -0.003597786417230964 -0.11853104084730147
0.0031064841896295547 -0.0028351976070553064 -0.11909667402505875
0.0030977895949035883 -0.001960465218871832 -0.11958632618188858
0.003088234690949321 -0.001032495405524969 -0.11999999731779097

CELLS 50 150
2 0 1
2 1 2
2 2 3
2 3 4
2 4 5
2 5 6
2 6 7
2 7 8
2 8 9
2 9 10
2 10 11
2 11 12
2 12 13
2 13 14
2 14 15
2 15 16
2 16 17
2 17 18
2 18 19
2 19 20
2 20 21
2 21 22
2 22 23
2 23 24
2 24 25
2 25 26
2 26 27
2 27 28
2 28 29
2 29 30
2 30 31
2 31 32
2 32 33
2 33 34
2 34 35
2 35 36
2 36 37
2 37 38
2 38 39
2 39 40
2 40 41
2 41 42
2 42 43
2 43 44
2 44 45
2 45 46
2 46 47
2 47 48
2 48 49
2 49 50

CELL_TYPES 50
4
4
4
4
4
4
4
4
4
4
4
4
4
4
4
4
4
4
4
4
4
4
4
4
4
4
4
4
4
4
4
4
4
4
4
4
4
4
4
4
4
4
4
4
4
4
4
4
4
4

POINT_DATA 51

SCALARS zone float
LOOKUP_TABLE default
1.0
1.0
1.0
1.0
1.0
1.0
1.0
1.0
1.0
1.0
1.0
1.0
1.0
1.0
1.0
1.0
1.0
1.0
1.0
1.0
1.0
1.0
1.0
1.0
1.0
1.0
1.0
1.0
1.0
1.0
1.0
1.0
1.0
1.0
1.0
1.0
1.0
1.0
1.0
1.0
1.0
1.0
1.0
1.0
1.0
1.0
1.0
1.0
1.0
1.0
1.0

VECTORS normals float
-0.00018154516874346882 2.787605808407534e-6 -0.002068363595753908
-0.00031745340675115585 -0.00018282874953001738 -0.004098737146705389
-0.0003203890810254961 -0.00043788537732325494 -0.00402275612577796
-0.00042105361353605986 -0.0005600898875854909 -0.003946775570511818
-0.0004630943294614554 -0.0005670363898389041 -0.0038707947824150324
-0.00036171305691823363 -0.00029726832872256637 -0.003794813994318247
-0.0001455355522921309 3.217236735508777e-5 -0.003718833439052105
7.072663720464334e-5 7.313097012229264e-5 -0.0036428526509553194
0.00020198317361064258 6.887451309012249e-5 -0.003566872095689177
0.00024425858282484114 0.00014320093032438308 -0.0034908913075923915
0.0002273943391628563 9.820110426517203e-5 -0.003414910519495607
0.00017962048877961934 2.579706597316544e-5 -0.003338929964229465
0.0001230136549565941 3.700507295434363e-5 -0.003262949176132679
7.320909935515374e-5 8.785943646216765e-5 -0.0031869683880358934
3.8772002881160006e-5 0.00010686188761610538 -0.0031109878327697515
2.1685751562472433e-5 7.202978304121643e-5 -0.003035007044672966
1.9110158973489888e-5 5.652827439917019e-6 -0.0029590262565761805
2.5710261979838833e-5 -4.870248812949285e-5 -0.0028830457013100386
3.630685023381375e-5 -5.982553921057842e-5 -0.002807064913213253
4.732568413601257e-5 -2.8672382541117255e-5 -0.0027310841251164675
5.6640183174749836e-5 1.9768887796089984e-5 -0.0026551035698503256
6.314866186585277e-5 5.859540033270605e-5 -0.00257912278175354
6.649269198533148e-5 7.545814878540114e-5 -0.002503142226487398
6.683685205643997e-5 7.159427332226187e-5 -0.0024271614383906126
6.468839274020866e-5 5.365105243981816e-5 -0.002351180650293827
6.0754482547054074e-5 2.8754891900462095e-5 -0.002275200095027685
5.583223173744046e-5 3.3885255561472154e-6 -0.0021992193069308996
5.072306885267608e-5 -1.688143311184831e-5 -0.002123238518834114
4.616025398718193e-5 -2.7640178814181127e-5 -0.002047257963567972
4.268924021744169e-5 -2.641859282448422e-5 -0.0019712771754711866
4.052436997881159e-5 -1.3811670214636253e-5 -0.0018952965037897231
3.9547361666336656e-5 6.7101759668730665e-6 -0.0018193157156929374
3.943082629120909e-5 3.014275716850534e-5 -0.0017433350440114737
3.97539661207702e-5 5.1152033847756684e-5 -0.00166735437233001
4.0087012166623026e-5 6.492129614343867e-5 -0.0015913737006485462
4.004923903266899e-5 6.770418985979632e-5 -0.0015153929125517607
3.934526102966629e-5 5.756396421929821e-5 -0.001439412240870297
3.778377140406519e-5 3.6540172004606575e-5 -0.0013634315691888332
3.528250090312213e-5 1.1805406757048331e-5 -0.0012874507810920477
3.186270623700693e-5 -6.915438916621496e-6 -0.001211470109410584
2.7636049708235078e-5 -1.0865778676816262e-5 -0.0011354894377291203
2.2786460249335505e-5 5.917721864534542e-6 -0.0010595087660476565
1.7549085896462202e-5 4.830342732020654e-5 -0.000983527977950871
1.21881839731941e-5 0.00012230643187649548 -0.0009075473062694074
6.97543964633951e-6 0.0002316113532288 -0.0008315665763802826
2.169919071093318e-6 0.00037219689693301916 -0.0007555859046988189
-1.999401547436719e-6 0.0005309481057338417 -0.0006796051748096943
-5.347871592675801e-6 0.0006876345723867416 -0.0006036245031282306
-7.745714356133249e-6 0.0008186605991795659 -0.0005276437732391059
-9.124661119130906e-6 0.0009013510425575079 -0.0004516630724538117
-4.777432877745014e-6 0.00046398484846577054 -0.00020683636830653995

CELL_DATA 50

VECTORS liftinglineloading               float
0.03221646323800087 0.04799879342317581 0.004199350252747536
-0.004253630992025137 0.015422672964632511 0.0013493089936673641
0.05028878524899483 0.0840473398566246 0.007353189401328564
-0.039718784391880035 0.14843754470348358 0.012986602261662483
-0.524345338344574 0.32773107290267944 0.02867275476455688
-1.3159632682800293 0.555347740650177 0.048586633056402206
-2.4026637077331543 0.830457866191864 0.07265564799308777
-3.575768232345581 1.1161794662475586 0.09765305370092392
-5.008199691772461 1.430438756942749 0.12514716386795044
-6.29784631729126 1.6848831176757812 0.14740817248821259
-7.3487229347228995 1.862115740776062 0.16291400790214539
-8.132658958435059 1.9674370288848877 0.17212843894958496
-8.613679885864258 2.0031063556671143 0.1752490997314453
-8.363167762756348 1.8860526084899902 0.16500823199748993
-8.487807273864746 1.8165826797485352 0.15893039107322693
-8.703845024108887 1.7662615776062014 0.15452787280082703
-8.77729320526123 1.6904410123825073 0.14789442718029022
-9.030282020568848 1.6421796083450315 0.14367209374904633
-9.278177261352539 1.6116020679473877 0.14099690318107605
-9.321955680847168 1.6051416397094727 0.1404317021369934
-9.663681983947754 1.5855337381362915 0.13871623575687408
-9.9132719039917 1.5300811529159546 0.13386476039886475
-9.884593963623047 1.4671636819839478 0.12836018204689026
-9.991352081298828 1.4329466819763184 0.12536659836769104
-10.100675582885742 1.392625331878662 0.12183892726898193
-10.28652286529541 1.3626598119735718 0.11921728402376175
-10.55044174194336 1.3300005197525024 0.11635997146368028
-10.824233055114746 1.2888962030410767 0.11276380717754364
-11.13760757446289 1.2450944185256958 0.10893164575099945
-11.486000061035156 1.1977249383926392 0.10478735715150835
-11.62698745727539 1.1413230895996094 0.09985283017158508
-12.191888809204102 1.1098109483718872 0.09709587693214417
-12.262365341186523 1.0413929224014282 0.09111008048057556
-12.318114280700684 0.9971407651901246 0.08723851293325424
-12.365306854248047 0.9595735669136047 0.08395180851221085
-12.347234725952148 0.9259116053581239 0.08100676536560059
-12.271134376525879 0.9076377749443054 0.07940801233053207
-12.145692825317383 0.8940050005912781 0.07821530103683472
-11.976973533630371 0.8723785281181335 0.07632323354482651
-11.601410865783691 0.8524892926216124 0.07458315044641495
-11.307052612304688 0.8291568756103516 0.07254182547330856
-10.64941692352295 0.8064367771148682 0.07055407762527466
-9.630032539367676 0.9155491590499878 0.0801001712679863
-8.291814804077148 0.9855061173439026 0.08622061461210251
-7.1755290031433105 1.1681627035140991 0.10220099240541457
-6.064576148986816 1.2355475425720215 0.1080964058637619
-5.203926086425781 1.2772465944290161 0.11174459755420685
-4.21997594833374 1.3233556747436523 0.11577861756086351
-3.2647240161895756 1.351022720336914 0.11819916963577272
-1.8040843009948728 1.410971760749817 0.12344402819871902