# vtk DataFile Version 4.0
 
ASCII
DATASET UNSTRUCTURED_GRID
POINTS 51 float
0.0029719590675085783 0.005839576944708824 -0.004849298857152462
0.002608868759125471 0.009961049072444439 -0.005204284097999334
0.0023370522540062666 0.01397398766130209 -0.005928021855652332
0.0019680906552821398 0.017899617552757263 -0.006777935195714235
0.0014949451433494687 0.02173987217247486 -0.007731907069683075
0.001041901996359229 0.025512907654047012 -0.008582415990531445
0.0007715190295130014 0.029248801991343498 -0.008985660970211029
0.0007508308626711369 0.03292787820100784 -0.009166551753878593
0.0009129723184742035 0.03651953116059303 -0.00947494711726904
0.0011547972681000829 0.040046483278274536 -0.009651074185967445
0.0014014894841238856 0.04349970817565918 -0.009798137471079826
0.0016095859464257958 0.046867430210113525 -0.010050676763057709
0.0017607304034754632 0.05015665292739868 -0.010328752920031548
0.0018556131981313229 0.05337494611740112 -0.010545718483626842
0.0019071486312896013 0.056521650403738015 -0.010709227994084358
0.0019331572111696005 0.059591874480247504 -0.010875088162720203
0.0019505200907588003 0.0625811219215393 -0.011094753630459309
0.0019713775254786015 0.06548839062452316 -0.01137961819767952
0.002001940505579114 0.06831678003072739 -0.011694335378706455
0.0020439913496375084 0.07107073068618774 -0.01198811735957861
0.0020965919829905033 0.07375316321849823 -0.012227521277964115
0.002157271606847644 0.0763641744852066 -0.012411545030772686
0.0022228893358260393 0.0789019986987114 -0.012560347095131874
0.0022902570199221373 0.08136456459760666 -0.01269752997905016
0.0023565629962831736 0.08375032991170883 -0.012840786017477512
0.0024196337908506393 0.08605838567018509 -0.013000473380088806
0.002478071954101324 0.08828842639923096 -0.013180088251829149
0.002531298203393817 0.09044067561626434 -0.013377071358263493
0.0025795181281864643 0.09251579642295837 -0.013583827763795853
0.0026236188132315874 0.09451479464769363 -0.013789001852273941
0.002664896659553051 0.09643874317407608 -0.013980080373585226
0.002704667393118143 0.09828855097293854 -0.014146892353892326
0.0027439913246780634 0.1000647023320198 -0.01428383868187666
0.0027835292275995016 0.10176721215248107 -0.014390719123184681
0.0028234992641955614 0.10339563339948653 -0.014472562819719315
0.0028637030627578497 0.10494916141033173 -0.014538765884935856
0.0029035976622253656 0.1064266934990883 -0.014601820148527622
0.0029423937667161226 0.10782706737518309 -0.01467498205602169
0.0029791651759296656 0.10914954543113708 -0.014766679145395758
0.0030129586812108755 0.11039422452449799 -0.014875878579914572
0.003042890690267086 0.1115620583295822 -0.014991630800068378
0.003068230813369155 0.1126546710729599 -0.015095456503331663
0.0030884635634720325 0.11367404460906982 -0.015164525248110296
0.0031033288687467575 0.11462265998125076 -0.015170657075941563
0.003112840000540018 0.11550355702638627 -0.015079039148986341
0.0031172798480838537 0.11631983518600462 -0.014854148961603643
0.0031171797309070826 0.11707385629415512 -0.014469184912741184
0.0031132809817790985 0.11776642501354218 -0.01391475647687912
0.0031064841896295547 0.11839637160301208 -0.013204367831349375
0.0030977895949035883 0.11896040290594101 -0.012375639751553535
0.003088234690949321 0.11945337802171707 -0.011487255804240704

CELLS 50 150
2 0 1
2 1 2
2 2 3
2 3 4
2 4 5
2 5 6
2 6 7
2 7 8
2 8 9
2 9 10
2 10 11
2 11 12
2 12 13
2 13 14
2 14 15
2 15 16
2 16 17
2 17 18
2 18 19
2 19 20
2 20 21
2 21 22
2 22 23
2 23 24
2 24 25
2 25 26
2 26 27
2 27 28
2 28 29
2 29 30
2 30 31
2 31 32
2 32 33
2 33 34
2 34 35
2 35 36
2 36 37
2 37 38
2 38 39
2 39 40
2 40 41
2 41 42
2 42 43
2 43 44
2 44 45
2 45 46
2 46 47
2 47 48
2 48 49
2 49 50

CELL_TYPES 50
4
4
4
4
4
4
4
4
4
4
4
4
4
4
4
4
4
4
4
4
4
4
4
4
4
4
4
4
4
4
4
4
4
4
4
4
4
4
4
4
4
4
4
4
4
4
4
4
4
4

POINT_DATA 51

SCALARS zone float
LOOKUP_TABLE default
1.0
1.0
1.0
1.0
1.0
1.0
1.0
1.0
1.0
1.0
1.0
1.0
1.0
1.0
1.0
1.0
1.0
1.0
1.0
1.0
1.0
1.0
1.0
1.0
1.0
1.0
1.0
1.0
1.0
1.0
1.0
1.0
1.0
1.0
1.0
1.0
1.0
1.0
1.0
1.0
1.0
1.0
1.0
1.0
1.0
1.0
1.0
1.0
1.0
1.0
1.0

VECTORS normals float
-0.00018154516874346882 0.0020607358310371637 -0.00017749276594258845
-0.00031745340675115585 0.004067205358296633 -0.0005393614992499352
-0.0003203890810254961 0.003969284240156412 -0.0007868254324421287
-0.00042105361353605986 0.003882941789925099 -0.0009019427234306931
-0.0004630943294614554 0.003806644817814231 -0.0009022406302392483
-0.00036171305691823363 0.003754465142264962 -0.000626876950263977
-0.0001455355522921309 0.0037074862048029895 -0.00029206773615442216
7.072663720464334e-5 0.0036353643517941236 -0.0002446428406983614
0.00020198317361064258 0.0035593018401414156 -0.00024226095410995185
0.00024425858282484114 0.0034900882747024298 -0.00016159522056113929
0.0002273943391628563 0.0034104746300727125 -0.0001998016523430124
0.00017962048877961934 0.0033284726087003946 -0.00026530801551416516
0.0001230136549565941 0.0032537579536437984 -0.0002475205110386014
7.320909935515374e-5 0.003182498505339027 -0.00019023749337065965
3.8772002881160006e-5 0.0031084632501006126 -0.00016468520334456116
2.1685751562472433e-5 0.0030297357589006424 -0.000192762614460662
1.9110158973489888e-5 0.0029482590034604073 -0.00025226481375284493
2.5710261979838833e-5 0.0028678299859166145 -0.0002997911360580474
3.630685023381375e-5 0.002791169099509716 -0.0003042497264686972
4.732568413601257e-5 0.00271819275803864 -0.00026659294962882996
5.6640183174749836e-5 0.002646723063662648 -0.00021171386470086873
6.314866186585277e-5 0.002574415411800146 -0.00016641293768770993
6.649269198533148e-5 0.002500193426385522 -0.00014299219765234739
6.683685205643997e-5 0.002424165140837431 -0.00014021921379026026
6.468839274020866e-5 0.002346909837797284 -0.00015147200610954314
6.0754482547054074e-5 0.0022690482437610626 -0.000169651277246885
5.583223173744046e-5 0.0021911459043622017 -0.00018829895998351276
5.072306885267608e-5 0.0021136878058314323 -0.0002018696250161156
4.616025398718193e-5 0.002037058351561427 -0.00020596527610905468
4.268924021744169e-5 0.001961473375558853 -0.00019812618847936395
4.052436997881159e-5 0.0018868804909288883 -0.00017894509073812515
3.9547361666336656e-5 0.0018129775999113917 -0.00015187916869763285
3.943082629120909e-5 0.0017393282614648342 -0.00012191361020086333
3.97539661207702e-5 0.0016654677456244824 -9.43621271289885e-5
4.0087012166623026e-5 0.001590976258739829 -7.402309711324051e-5
4.004923903266899e-5 0.001515527255833149 -6.46286498522386e-5
3.934526102966629e-5 0.0014389519346877933 -6.810812919866294e-5
3.778377140406519e-5 0.0013614279450848699 -8.242976036854088e-5
3.528250090312213e-5 0.0012835805537179112 -0.00010044824739452451
3.186270623700693e-5 0.0012062573805451393 -0.00011247570364503191
2.7636049708235078e-5 0.0011302215280011296 -0.00010978885256918147
2.2786460249335505e-5 0.0010559927904978395 -8.644706394989043e-5
1.7549085896462202e-5 0.0009839952690526843 -3.760049366974272e-5
1.21881839731941e-5 0.0009147535311058165 4.2743064113892615e-5
6.97543964633951e-6 0.0008485884754918516 0.00015825420268811285
2.169919071093318e-6 0.0007851497502997518 0.0003049269434995949
-1.999401547436719e-6 0.0007232942734844983 0.00046969615505076945
-5.347871592675801e-6 0.0006612588185817003 0.0006324085989035666
-7.745714356133249e-6 0.0005969869089312851 0.0007695581298321486
-9.124661119130906e-6 0.0005285022780299187 0.0008585561299696565
-4.777432877745014e-6 0.0002464882272761315 0.00044419226469472056

CELL_DATA 50

VECTORS liftinglineloading               float
0.04391675069928169 1.9704121140859903e-16 0.06051122397184372
-0.019247164949774742 4.2765092912384295e-18 0.0013133131433278322
0.060194257646799094 2.4884091572789473e-16 0.07641887664794922
0.011333002708852291 4.321900645372546e-16 0.1327252835035324
-0.39155057072639465 9.517757709623462e-16 0.29228970408439636
-1.1839593648910522 1.7133440467507531e-15 0.5261667966842651
-2.23659610748291 2.6435953340948285e-15 0.8118463158607483
-3.372043132781982 3.571043895295558e-15 1.0966652631759644
-4.768379211425781 4.59854695284128e-15 1.4122107028961182
-6.012482166290283 5.4147301131236315e-15 1.6628599166870117
-7.000789642333984 5.948002574957151e-15 1.8266274929046633
-7.777488708496094 6.307310563050637e-15 1.936970829963684
-8.298114776611328 6.443100108890868e-15 1.978671669960022
-8.020642280578613 6.040523560269266e-15 1.8550406694412231
-8.12077522277832 5.797654650335987e-15 1.7804558277130127
-8.339012145996094 5.638837666791701e-15 1.7316832542419434
-8.403070449829102 5.403708943930432e-15 1.6594754457473755
-8.680630683898926 5.27289571665532e-15 1.6193026304244995
-8.915092468261719 5.1792079434583634e-15 1.5905312299728394
-9.208477020263672 5.197757117970285e-15 1.596227765083313
-9.550971031188965 5.137752880470317e-15 1.5778003931045532
-9.801846504211426 4.959672673639573e-15 1.523112177848816
-9.780706405639648 4.757989470217114e-15 1.4611754417419434
-9.898472785949707 4.649554006375513e-15 1.4278749227523804
-10.021652221679688 4.520928241686685e-15 1.3883739709854126
-10.220714569091797 4.4249335742578815e-15 1.3588941097259521
-10.480643272399902 4.320058613410064e-15 1.3266870975494385
-10.771320343017578 4.187401395408779e-15 1.2859481573104858
-11.093894004821777 4.045852025527218e-15 1.242478370666504
-11.442730903625488 3.8928588170117785e-15 1.195494294166565
-11.595479965209961 3.709182687014999e-15 1.139087438583374
-12.150067329406738 3.608419224093154e-15 1.1081430912017822
-12.210649490356445 3.3886770664769963e-15 1.0406603813171387
-12.255730628967285 3.248049480200285e-15 0.9974737763404846
-12.274898529052734 3.1330465464021475e-15 0.9621564745903015
-12.24323558807373 3.0259009019809784e-15 0.9292521476745604
-12.194584846496582 2.9671123685185565e-15 0.9111981987953186
-12.051506042480469 2.9243496984181867e-15 0.8980658054351806
-11.865033149719238 2.855316936733435e-15 0.8768659234046936
-11.476029396057129 2.790644912419385e-15 0.8570051789283751
-11.167912483215332 2.7145394256250597e-15 0.8336332440376282
-10.503064155578613 2.6353647149463585e-15 0.8093187808990479
-9.485247611999512 2.9883928007689003e-15 0.9177333712577819
-8.143877029418945 3.212002087305747e-15 0.9864036440849305
-7.0277628898620605 3.7988127488781335e-15 1.1666128635406494
-5.887690544128418 4.009086136935172e-15 1.2311877012252808
-5.027328014373779 4.141609100214317e-15 1.2718852758407593
-4.046031475067139 4.288191963384936e-15 1.3169009685516357
-3.09845232963562 4.37356356710575e-15 1.34311842918396
-1.6851658821105957 4.564328092321627e-15 1.4017020463943481