# vtk DataFile Version 4.0
 
ASCII
DATASET UNSTRUCTURED_GRID
POINTS 51 float
0.0029719590675085783 0.0026325727812945843 -0.0071194046176970005
0.002608868759125471 0.0060243792831897736 -0.009487566538155079
0.0023370522540062666 0.009137817658483982 -0.012120811268687248
0.0019680906552821398 0.012112556025385857 -0.01481967233121395
0.0014949451433494687 0.01496132742613554 -0.01756596378982067
0.001041901996359229 0.0178036168217659 -0.020189043134450912
0.0007715190295130014 0.02083737403154373 -0.022406211122870445
0.0007508308626711369 0.023933103308081627 -0.024402406066656113
0.0009129723184742035 0.026889367029070854 -0.026465309783816338
0.0011547972681000829 0.029855733737349514 -0.028381315991282467
0.0014014894841238856 0.03277278319001198 -0.0302352886646986
0.0016095859464257958 0.03556304797530174 -0.032137855887413025
0.0017607304034754632 0.03827255964279175 -0.03402328863739967
0.0018556131981313229 0.0409511998295784 -0.035820335149765015
0.0019071486312896013 0.043594568967819214 -0.03753528743982315
0.0019331572111696005 0.04617053270339966 -0.03921404108405113
0.0019505200907588003 0.048649463802576065 -0.040898896753787994
0.0019713775254786015 0.051024802029132836 -0.042599234730005264
0.002001940505579114 0.05331689864397049 -0.044285982847213745
0.0020439913496375084 0.055554997175931924 -0.04591738060116768
0.0020965919829905033 0.057758353650569916 -0.04746592789888382
0.002157271606847644 0.05992754548788071 -0.04893080145120621
0.0022228893358260393 0.062050960958004 -0.050328578799963
0.0022902570199221373 0.064115010201931 -0.05167866498231887
0.0023565629962831736 0.06610951572656631 -0.05299561098217964
0.0024196337908506393 0.0680285096168518 -0.05428793281316757
0.002478071954101324 0.06986997276544571 -0.055558502674102776
0.002531298203393817 0.07163538783788681 -0.05680521950125694
0.0025795181281864643 0.07332912087440491 -0.05802183970808983
0.0026236188132315874 0.0749577060341835 -0.0591990202665329
0.002664896659553051 0.07652836292982101 -0.06032647565007209
0.002704667393118143 0.07804694026708603 -0.06139584258198738
0.0027439913246780634 0.07951665669679642 -0.06240251660346985
0.0027835292275995016 0.08093763142824173 -0.06334633380174637
0.0028234992641955614 0.08230696618556976 -0.06423142552375793
0.0028637030627578497 0.08361925929784775 -0.06506551802158356
0.0029035976622253656 0.08486730605363846 -0.06585889309644699
0.0029423937667161226 0.08604348450899124 -0.06662243604660034
0.0029791651759296656 0.0871429368853569 -0.06736309081315994
0.0030129586812108755 0.0881662666797638 -0.06808000057935715
0.003042890690267086 0.08911976218223572 -0.06876416504383087
0.003068230813369155 0.09001407772302628 -0.06940038502216339
0.0030884635634720325 0.09086234867572784 -0.06996988505125046
0.0031033288687467575 0.09168080985546112 -0.07044950127601624
0.003112840000540018 0.09248949587345123 -0.07081060856580734
0.0031172798480838537 0.09330885857343674 -0.07102398574352264
0.0031171797309070826 0.09415433555841446 -0.07106760889291763
0.0031132809817790985 0.09503133594989777 -0.0709337443113327
0.0031064841896295547 0.09593208134174347 -0.07063350081443787
0.0030977895949035883 0.09683490544557571 -0.07019782066345215
0.003088234690949321 0.09770602732896805 -0.06967494636774063

CELLS 50 150
2 0 1
2 1 2
2 2 3
2 3 4
2 4 5
2 5 6
2 6 7
2 7 8
2 8 9
2 9 10
2 10 11
2 11 12
2 12 13
2 13 14
2 14 15
2 15 16
2 16 17
2 17 18
2 18 19
2 19 20
2 20 21
2 21 22
2 22 23
2 23 24
2 24 25
2 25 26
2 26 27
2 27 28
2 28 29
2 29 30
2 30 31
2 31 32
2 32 33
2 33 34
2 34 35
2 35 36
2 36 37
2 37 38
2 38 39
2 39 40
2 40 41
2 41 42
2 42 43
2 43 44
2 44 45
2 45 46
2 46 47
2 47 48
2 48 49
2 49 50

CELL_TYPES 50
4
4
4
4
4
4
4
4
4
4
4
4
4
4
4
4
4
4
4
4
4
4
4
4
4
4
4
4
4
4
4
4
4
4
4
4
4
4
4
4
4
4
4
4
4
4
4
4
4
4

POINT_DATA 51

SCALARS zone float
LOOKUP_TABLE default
1.0
1.0
1.0
1.0
1.0
1.0
1.0
1.0
1.0
1.0
1.0
1.0
1.0
1.0
1.0
1.0
1.0
1.0
1.0
1.0
1.0
1.0
1.0
1.0
1.0
1.0
1.0
1.0
1.0
1.0
1.0
1.0
1.0
1.0
1.0
1.0
1.0
1.0
1.0
1.0
1.0
1.0
1.0
1.0
1.0
1.0
1.0
1.0
1.0
1.0
1.0

VECTORS normals float
-0.00018154516874346882 0.0016959032509475946 -0.0011840811930596828
-0.00031745340675115585 0.003252622438594699 -0.0025007035583257675
-0.0003203890810254961 0.003044088138267398 -0.002666052896529436
-0.00042105361353605986 0.002911754883825779 -0.0027225762605667114
-0.0004630943294614554 0.002845530863851309 -0.0026846856344491243
-0.00036171305691823363 0.0029380235355347395 -0.0024201238993555307
-0.0001455355522921309 0.0030647432431578636 -0.0021066812332719564
7.072663720464334e-5 0.0030259964987635612 -0.0020295490976423025
0.00020198317361064258 0.0029613152146339417 -0.001989454962313175
0.00024425858282484114 0.002941707381978631 -0.0018849896732717755
0.0002273943391628563 0.0028536568861454725 -0.0018782706465572117
0.00017962048877961934 0.0027498877607285976 -0.0018939997535198927
0.0001230136549565941 0.0026940766256302595 -0.0018412380013614893
7.320909935515374e-5 0.002661005826666951 -0.0017559997504577039
3.8772002881160006e-5 0.0026096655055880547 -0.0016968530835583806
2.1685751562472433e-5 0.0025274467188864946 -0.001681805239059031
1.9110158973489888e-5 0.002427134895697236 -0.0016925972886383531
2.5710261979838833e-5 0.002333718119189143 -0.001693541766144335
3.630685023381375e-5 0.0022650985047221184 -0.00165907246991992
4.732568413601257e-5 0.002220727503299713 -0.001589972642250359
5.6640183174749836e-5 0.0021862725261598825 -0.0015067111235111952
6.314866186585277e-5 0.0021463027223944664 -0.0014313255669549108
6.649269198533148e-5 0.0020937349181622267 -0.0013739316491410136
6.683685205643997e-5 0.002029279014095664 -0.0013335159746930003
6.468839274020866e-5 0.001956747379153967 -0.0013046334497630596
6.0754482547054074e-5 0.0018802278209477663 -0.0012814464280381799
5.583223173744046e-5 0.0018034385284408927 -0.0012586446246132255
5.072306885267608e-5 0.0017295724246650934 -0.0012316680513322353
4.616025398718193e-5 0.001661161775700748 -0.0011969003826379776
4.268924021744169e-5 0.0015996226575225592 -0.001152319018729031
4.052436997881159e-5 0.001544613973237574 -0.0010984112741425633
3.9547361666336656e-5 0.0014941450208425522 -0.0010380200110375881
3.943082629120909e-5 0.0014453456969931722 -0.0009752443875186146
3.97539661207702e-5 0.0013951563742011786 -0.0009144538780674337
4.0087012166623026e-5 0.0013408142840489745 -0.0008595940307714045
4.004923903266899e-5 0.0012801707489416003 -0.0008137336699292065
3.934526102966629e-5 0.0012121148174628615 -0.0007784593035466969
3.778377140406519e-5 0.001137816347181797 -0.0007521002553403378
3.528250090312213e-5 0.0010613893391564488 -0.0007287810440175235
3.186270623700693e-5 0.0009884117171168327 -0.0007005355437286198
2.7636049708235078e-5 0.00092390610370785 -0.0006601907080039382
2.2786460249335505e-5 0.0008712930139154195 -0.0006028617499396205
1.7549085896462202e-5 0.0008333646692335606 -0.0005245606298558414
1.21881839731941e-5 0.0008135713287629186 -0.0004203601856715978
6.97543964633951e-6 0.0008140262798406184 -0.00028724208823405206
2.169919071093318e-6 0.0008324231021106243 -0.00012850041093770415
-1.999401547436719e-6 0.0008612392703071237 4.512168015935458e-5
-5.347871592675801e-6 0.0008888712618499994 0.00021705249673686922
-7.745714356133249e-6 0.0009017849224619567 0.0003679634537547827
-9.124661119130906e-6 0.0008869744488038123 0.00047928025014698505
-4.777432877745014e-6 0.0004355612036306411 0.0002614376717247069

CELL_DATA 50

VECTORS liftinglineloading               float
0.07402075082063675 0.041080959141254425 0.07115431129932404
0.06306010484695435 0.04386182129383087 0.07597090303897858
0.009347852319478989 0.02610572800040245 0.04521644860506058
0.12314244359731674 0.050632402300834656 0.08769789338111877
-0.14345088601112366 0.10884269326925278 0.18852107226848602
-0.9666064977645873 0.238302007317543 0.412751168012619
-2.049264907836914 0.40158677101135254 0.6955687403678894
-3.2441322803497314 0.5505062937736511 0.9535049200057983
-4.699510097503662 0.7135533690452576 1.2359106540679932
-5.989485740661621 0.8410595655441284 1.45675790309906
-6.965208530426026 0.9202429056167601 1.5939074754714966
-7.75495481491089 0.9768980741500854 1.6920371055603027
-8.274717330932617 0.997704029083252 1.728074073791504
-7.933405399322511 0.9310231804847717 1.6125794649124146
-7.947310924530029 0.8874940276145935 1.537184715270996
-8.059091567993164 0.8576442003250122 1.4854834079742432
-8.120266914367676 0.8233289718627929 1.426047682762146
-8.424015998840332 0.8073825240135193 1.3984274864196777
-8.62484359741211 0.7928856015205383 1.373318076133728
-8.731274604797363 0.7886968851089478 1.3660629987716675
-9.065794944763184 0.782553493976593 1.3554223775863647
-9.309085845947266 0.7552744150161743 1.308173656463623
-9.307172775268555 0.7260104417800903 1.2574869394302368
-9.45046615600586 0.7113426923751831 1.232081651687622
-9.726323127746582 0.6948997378349304 1.203601598739624
-9.978926658630371 0.6814836859703064 1.1803643703460693
-10.27927303314209 0.6661451458930969 1.1537972688674927
-10.558055877685547 0.6458502411842346 1.118645429611206
-10.872272491455078 0.6246306896209717 1.0818921327590942
-11.245447158813477 0.6013428568840027 1.0415563583374023
-11.382603645324707 0.5741649270057678 0.9944828748703004
-11.937329292297363 0.5600217580795288 0.969986081123352
-11.987570762634277 0.5278523564338684 0.9142671227455139
-12.018227577209473 0.5063674449920654 0.8770540952682495
-12.037001609802246 0.48854076862335205 0.8461773991584778
-11.986953735351562 0.4718241691589356 0.8172234296798707
-11.886247634887695 0.46264317631721497 0.8013215065002441
-11.735962867736816 0.45551273226737976 0.7889711856842041
-11.542640686035156 0.4445651471614838 0.770009458065033
-11.161561965942383 0.433824360370636 0.7514058351516724
-10.859725952148438 0.42149537801742554 0.7300513982772827
-10.237996101379395 0.40684849023818975 0.7046822905540466
-9.28244400024414 0.45995500683784485 0.7966654896736145
-7.949648857116699 0.4930728077888489 0.8540271520614625
-6.84919548034668 0.5810574293136597 1.0064209699630737
-5.725506782531738 0.6123318672180176 1.0605899095535278
-4.8825531005859375 0.6324485540390015 1.095432996749878
-3.921953916549683 0.6548458933830261 1.1342263221740723
-2.9991796016693115 0.6678712368011475 1.1567869186401367
-1.6212526559829712 0.6966677308082581 1.2066638469696045