# vtk DataFile Version 4.0
 
ASCII
DATASET UNSTRUCTURED_GRID
POINTS 51 float
0.0029719590675085783 0.003828849643468857 -0.006554103456437587
0.002608868759125471 0.007580353878438474 -0.00829730648547411
0.0023370522540062666 0.011103750206530094 -0.010349903255701065
0.0019680906552821398 0.014501947909593582 -0.012491204775869846
0.0014949451433494687 0.017784329131245613 -0.014701089821755886
0.001041901996359229 0.021038930863142014 -0.016790760681033134
0.0007715190295130014 0.024411605671048164 -0.01844743825495243
0.0007508308626711369 0.02780693955719471 -0.01987573876976967
0.0009129723184742035 0.031076511368155476 -0.021393952891230583
0.0011547972681000829 0.034330520778894424 -0.0227657463401556
0.0014014894841238856 0.03752519190311432 -0.024085013195872307
0.0016095859464257958 0.04060344398021698 -0.025474153459072113
0.0017607304034754632 0.043599195778369904 -0.026860438287258145
0.0018556131981313229 0.046549197286367416 -0.02816504053771496
0.0019071486312896013 0.04945020377635956 -0.029394924640655518
0.0019331572111696005 0.0522785447537899 -0.030600860714912415
0.0019505200907588003 0.05501238629221916 -0.03182966262102127
0.0019713775254786015 0.057646900415420525 -0.03309169411659241
0.002001940505579114 0.06019707769155503 -0.0343547947704792
0.0020439913496375084 0.06268446147441864 -0.03557276725769043
0.0020965919829905033 0.06512324512004852 -0.036715179681777954
0.002157271606847644 0.0675138533115387 -0.03778112307190895
0.0022228893358260393 0.06984773278236389 -0.03878893703222275
0.0022902570199221373 0.07211486995220184 -0.03976009413599968
0.0023565629962831736 0.07430775463581085 -0.0407106913626194
0.0024196337908506393 0.07642200589179993 -0.04165014997124672
0.002478071954101324 0.07845612615346909 -0.042581651359796524
0.002531298203393817 0.08041120320558548 -0.043502867221832275
0.0025795181281864643 0.08229047060012817 -0.044406890869140625
0.0026236188132315874 0.08409873396158218 -0.04528338462114334
0.002664896659553051 0.08584130555391312 -0.04612097144126892
0.002704667393118143 0.08752250671386719 -0.04691039398312569
0.0027439913246780634 0.08914469927549362 -0.04764655977487564
0.0027835292275995016 0.09070798009634018 -0.04832929000258446
0.0028234992641955614 0.09221021085977554 -0.04896315187215805
0.0028637030627578497 0.09364739805459976 -0.04955669865012169
0.0029035976622253656 0.09501425921916962 -0.05012129619717598
0.0029423937667161226 0.09630516171455383 -0.050668999552726746
0.0029791651759296656 0.09751652181148529 -0.051207482814788825
0.0030129586812108755 0.0986487865447998 -0.05173580348491669
0.003042890690267086 0.09970660507678986 -0.052243996411561966
0.003068230813369155 0.10069780796766281 -0.0527152568101883
0.0030884635634720325 0.10163208842277527 -0.05312880501151085
0.0031033288687467575 0.10252139717340471 -0.053459014743566506
0.003112840000540018 0.10338050127029418 -0.053674202412366874
0.0031172798480838537 0.10422447323799133 -0.05374206230044365
0.0031171797309070826 0.10506468266248703 -0.05363820120692254
0.0031132809817790985 0.10590511560440063 -0.053354084491729736
0.0031064841896295547 0.10674003511667253 -0.052901990711688995
0.0030977895949035883 0.10755348950624465 -0.052316151559352875
0.003088234690949321 0.10832058638334273 -0.051649950444698334

CELLS 50 150
2 0 1
2 1 2
2 2 3
2 3 4
2 4 5
2 5 6
2 6 7
2 7 8
2 8 9
2 9 10
2 10 11
2 11 12
2 12 13
2 13 14
2 14 15
2 15 16
2 16 17
2 17 18
2 18 19
2 19 20
2 20 21
2 21 22
2 22 23
2 23 24
2 24 25
2 25 26
2 26 27
2 27 28
2 28 29
2 29 30
2 30 31
2 31 32
2 32 33
2 33 34
2 34 35
2 35 36
2 36 37
2 37 38
2 38 39
2 39 40
2 40 41
2 41 42
2 42 43
2 43 44
2 44 45
2 45 46
2 46 47
2 47 48
2 48 49
2 49 50

CELL_TYPES 50
4
4
4
4
4
4
4
4
4
4
4
4
4
4
4
4
4
4
4
4
4
4
4
4
4
4
4
4
4
4
4
4
4
4
4
4
4
4
4
4
4
4
4
4
4
4
4
4
4
4

POINT_DATA 51

SCALARS zone float
LOOKUP_TABLE default
1.0
1.0
1.0
1.0
1.0
1.0
1.0
1.0
1.0
1.0
1.0
1.0
1.0
1.0
1.0
1.0
1.0
1.0
1.0
1.0
1.0
1.0
1.0
1.0
1.0
1.0
1.0
1.0
1.0
1.0
1.0
1.0
1.0
1.0
1.0
1.0
1.0
1.0
1.0
1.0
1.0
1.0
1.0
1.0
1.0
1.0
1.0
1.0
1.0
1.0
1.0

VECTORS normals float
-0.00018154516874346882 0.0018757521174848082 -0.0008716018055565655
-0.00031745340675115585 0.0036374505143612623 -0.0018979001324623823
-0.0003203890810254961 0.0034607970155775547 -0.0020969491451978683
-0.00042105361353605986 0.0033402892295271154 -0.0021755932830274105
-0.0004630943294614554 0.003268491476774216 -0.002149777952581644
-0.00036171305691823363 0.0033136385027319197 -0.0018731743330135942
-0.0001455355522921309 0.003384004347026348 -0.0015424888115376234
7.072663720464334e-5 0.003332452150061726 -0.001473256852477789
0.00020198317361064258 0.003261791542172432 -0.0014450037851929665
0.00024425858282484114 0.003224341198801994 -0.0013455302687361836
0.0002273943391628563 0.0031364616006612778 -0.0013542030937969685
0.00017962048877961934 0.0030370005406439304 -0.0013877126621082425
0.0001230136549565941 0.0029728752560913563 -0.001345443888567388
7.320909935515374e-5 0.002925505395978689 -0.0012672434095293283
3.8772002881160006e-5 0.00286467419937253 -0.0012179104378446937
2.1685751562472433e-5 0.0027810917235910892 -0.0012173682916909456
1.9110158973489888e-5 0.0026841775979846716 -0.0012454154202714562
2.5710261979838833e-5 0.002592344069853425 -0.001262567238882184
3.630685023381375e-5 0.0025187814608216286 -0.0012405372690409422
4.732568413601257e-5 0.0024630853440612555 -0.0011801921064034104
5.6640183174749836e-5 0.0024146956857293844 -0.0011041784891858697
6.314866186585277e-5 0.002362242667004466 -0.0010368789080530405
6.649269198533148e-5 0.0023005071561783552 -0.0009894852992147207
6.683685205643997e-5 0.002230012323707342 -0.0009608762920834124
6.468839274020866e-5 0.002153567271307111 -0.0009450275101698936
6.0754482547054074e-5 0.0020741838961839676 -0.0009354802896268665
5.583223173744046e-5 0.001994601683691144 -0.0009263592073693871
5.072306885267608e-5 0.0019171732710674407 -0.0009126191725954413
4.616025398718193e-5 0.001843764563091099 -0.0008902590489014983
4.268924021744169e-5 0.0017754188738763335 -0.0008570411009714007
4.052436997881159e-5 0.0017118848627433183 -0.00081350450636819
3.9547361666336656e-5 0.001651695929467678 -0.0007627945742569864
3.943082629120909e-5 0.0015927370404824617 -0.0007094466127455235
3.97539661207702e-5 0.0015327540459111333 -0.0006582949426956475
4.0087012166623026e-5 0.0014697113074362278 -0.0006137049058452249
4.004923903266899e-5 0.0014020254602655768 -0.0005790719296783209
3.934526102966629e-5 0.001328878104686737 -0.0005561512080021203
3.778377140406519e-5 0.001251131179742515 -0.0005430944147519767
3.528250090312213e-5 0.0011718159075826406 -0.0005334009183570743
3.186270623700693e-5 0.0010950422147288918 -0.0005182569148018956
2.7636049708235078e-5 0.0010245108278468251 -0.0004897263133898377
2.2786460249335505e-5 0.0009627419640310109 -0.00044240444549359387
1.7549085896462202e-5 0.0009117930312640965 -0.0003718791122082621
1.21881839731941e-5 0.0008742061327211559 -0.0002726987877395004
6.97543964633951e-6 0.000851538497954607 -0.00014152405492495745
2.169919071093318e-6 0.0008420905796810985 1.8000555428443477e-5
-1.999401547436719e-6 0.00084031984442845 0.0001939888170454651
-5.347871592675801e-6 0.0008376765181310474 0.0003681058587972075
-7.745714356133249e-6 0.0008241885807365178 0.0005189665826037526
-9.124661119130906e-6 0.0007902731886133552 0.0006260204245336354
-4.777432877745014e-6 0.00038354587741196156 0.0003331002371851355

CELL_DATA 50

VECTORS liftinglineloading               float
0.04125843197107315 0.019870737567543983 0.05459440127015114
-0.018005860969424248 0.0008548239129595459 0.0023486095014959574
0.05828721076250076 0.0271092988550663 0.07448218762874603
-0.004531652666628361 0.04703545197844505 0.1292288452386856
-0.43735677003860474 0.10442382842302324 0.28690212965011597
-1.2225985527038574 0.18311302363872528 0.5030989050865173
-2.2751364707946777 0.27929720282554626 0.7673627734184265
-3.4314172267913823 0.3771468997001648 1.0362025499343872
-4.8349289894104 0.48488879203796387 1.3322210311889648
-6.086636543273926 0.5708616375923157 1.5684294700622559
-7.084524631500244 0.6279032826423645 1.725149989128113
-7.853914737701416 0.6649168729782104 1.8268440961837769
-8.356634140014648 0.6784743666648865 1.8640929460525513
-8.074291229248047 0.636299192905426 1.7482177019119263
-8.168126106262207 0.6107401251792908 1.6779946088790894
-8.417661666870117 0.5950406193733215 1.634860634803772
-8.457901954650879 0.5693656802177429 1.564319372177124
-8.707365989685059 0.5547115206718445 1.524057388305664
-8.919511795043945 0.5444034337997437 1.4957362413406372
-8.98319149017334 0.5418237447738647 1.4886484146118164
-9.318929672241211 0.5364119410514832 1.4737796783447266
-9.725228309631348 0.519243061542511 1.426608681678772
-9.701171875 0.49818217754364014 1.3687442541122437
-9.814645767211914 0.4869674146175384 1.3379319906234741
-9.934611320495605 0.47377321124076843 1.3016811609268188
-10.12968635559082 0.4640086889266968 1.2748533487319946
-10.461418151855469 0.4534412622451782 1.2458196878433228
-10.741541862487793 0.43962070345878596 1.2078479528427124
-11.054292678833008 0.4249076247215271 1.1674240827560425
-11.393692016601562 0.40904551744461054 1.1238433122634888
-11.486173629760742 0.3905026912689209 1.0728973150253296
-12.053818702697754 0.38020703196525574 1.0446102619171143
-12.122819900512695 0.35739853978157043 0.9819443821907045
-12.173477172851562 0.3425273895263672 0.9410862922668457
-12.195880889892578 0.33034706115722656 0.9076211452484131
-12.177332878112793 0.31880903244018555 0.8759206533432007
-12.094170570373535 0.3127540051937103 0.8592845201492311
-11.960328102111816 0.308049738407135 0.8463597297668457
-11.782673835754395 0.3006504774093628 0.8260303735733033
-11.40521240234375 0.29366034269332886 0.8068251609802246
-11.107516288757324 0.28552010655403137 0.7844600677490234
-10.454951286315918 0.27690133452415466 0.7607801556587219
-9.45047664642334 0.3138539493083954 0.8623066544532776
-8.17121410369873 0.337433785200119 0.9270917177200318
-7.055881023406982 0.39929530024528503 1.0970548391342163
-5.917239189147949 0.42154744267463684 1.1581920385360718
-5.058994770050049 0.4355925917625428 1.196780800819397
-4.079580783843994 0.451142817735672 1.2395046949386597
-3.132488489151001 0.46030786633491516 1.2646855115890503
-1.710308074951172 0.48055601119995117 1.3203167915344238