# vtk DataFile Version 4.0
 
ASCII
DATASET UNSTRUCTURED_GRID
POINTS 51 float
0.0029719590675085783 -0.006862869020551443 -0.0032430519349873066
0.002608868759125471 -0.008926404640078545 -0.006828350480645896
0.0023370522540062666 -0.011278274469077587 -0.010159444063901901
0.0019680906552821398 -0.01370760053396225 -0.01335808355361223
0.0014949451433494687 -0.016195153817534447 -0.016435369849205017
0.001041901996359229 -0.018560530617833138 -0.019495459273457527
0.0007715190295130014 -0.020504852756857872 -0.02271091192960739
0.0007508308626711369 -0.022223640233278275 -0.02596884034574032
0.0009129723184742035 -0.02402103878557682 -0.029093649238348007
0.0011547972681000829 -0.02567121759057045 -0.03221571817994118
0.0014014894841238856 -0.02726389840245247 -0.035283252596855164
0.0016095859464257958 -0.02891603857278824 -0.03822872042655945
0.0017607304034754632 -0.030558146536350247 -0.041092243045568466
0.0018556131981313229 -0.032114893198013306 -0.04391731694340706
0.0019071486312896013 -0.033592939376831055 -0.046700093895196915
0.0019331572111696005 -0.03504079207777977 -0.0494125671684742
0.0019505200907588003 -0.03650318458676338 -0.052028913050889976
0.0019713775254786015 -0.0379900261759758 -0.0545434057712555
0.002001940505579114 -0.03947058692574501 -0.056973788887262344
0.0020439913496375084 -0.040900710970163345 -0.059345558285713196
0.0020965919829905033 -0.042251333594322205 -0.06167549639940261
0.002157271606847644 -0.04352157562971115 -0.06396409869194031
0.0022228893358260393 -0.04472896456718445 -0.06620126217603683
0.0022902570199221373 -0.045894019305706024 -0.0683751255273819
0.0023565629962831736 -0.04703212156891823 -0.07047682255506516
0.0024196337908506393 -0.04815227538347244 -0.07250114530324936
0.002478071954101324 -0.049257516860961914 -0.07444634288549423
0.002531298203393817 -0.05034562572836876 -0.07631368935108185
0.0025795181281864643 -0.05140999332070351 -0.07810701429843903
0.0026236188132315874 -0.052440755069255836 -0.07983200997114182
0.002664896659553051 -0.05342702940106392 -0.08149494975805283
0.002704667393118143 -0.05435997620224953 -0.08310094475746155
0.0027439913246780634 -0.055234722793102264 -0.08465280383825302
0.0027835292275995016 -0.0560511015355587 -0.0861506313085556
0.0028234992641955614 -0.05681348219513893 -0.08759190142154694
0.0028637030627578497 -0.05753002688288689 -0.08897189795970917
0.0029035976622253656 -0.05821160599589348 -0.09028434008359909
0.0029423937667161226 -0.05886973813176155 -0.09152259677648544
0.0029791651759296656 -0.05951174721121787 -0.09268241375684738
0.0030129586812108755 -0.060136739164590836 -0.09376432746648788
0.003042890690267086 -0.060735195875167854 -0.09477382898330688
0.003068230813369155 -0.06129105016589164 -0.09572018682956696
0.0030884635634720325 -0.06178445369005203 -0.09661486744880676
0.0031033288687467575 -0.062190912663936615 -0.09747201204299927
0.003112840000540018 -0.06248016282916069 -0.09830909222364426
0.0031172798480838537 -0.06262131780385971 -0.09914393723011017
0.0031171797309070826 -0.0625910833477974 -0.09999000281095505
0.0031132809817790985 -0.06238129362463951 -0.10085199773311615
0.0031064841896295547 -0.062003690749406815 -0.10172314941883087
0.0030977895949035883 -0.0614909753203392 -0.1025845631957054
0.003088234690949321 -0.06089416891336441 -0.10340680181980133

CELLS 50 150
2 0 1
2 1 2
2 2 3
2 3 4
2 4 5
2 5 6
2 6 7
2 7 8
2 8 9
2 9 10
2 10 11
2 11 12
2 12 13
2 13 14
2 14 15
2 15 16
2 16 17
2 17 18
2 18 19
2 19 20
2 20 21
2 21 22
2 22 23
2 23 24
2 24 25
2 25 26
2 26 27
2 27 28
2 28 29
2 29 30
2 30 31
2 31 32
2 32 33
2 33 34
2 34 35
2 35 36
2 36 37
2 37 38
2 38 39
2 39 40
2 40 41
2 41 42
2 42 43
2 43 44
2 44 45
2 45 46
2 46 47
2 47 48
2 48 49
2 49 50

CELL_TYPES 50
4
4
4
4
4
4
4
4
4
4
4
4
4
4
4
4
4
4
4
4
4
4
4
4
4
4
4
4
4
4
4
4
4
4
4
4
4
4
4
4
4
4
4
4
4
4
4
4
4
4

POINT_DATA 51

SCALARS zone float
LOOKUP_TABLE default
1.0
1.0
1.0
1.0
1.0
1.0
1.0
1.0
1.0
1.0
1.0
1.0
1.0
1.0
1.0
1.0
1.0
1.0
1.0
1.0
1.0
1.0
1.0
1.0
1.0
1.0
1.0
1.0
1.0
1.0
1.0
1.0
1.0
1.0
1.0
1.0
1.0
1.0
1.0
1.0
1.0
1.0
1.0
1.0
1.0
1.0
1.0
1.0
1.0
1.0
1.0

VECTORS normals float
-0.00018154516874346882 -0.001031767693348229 -0.0017926492728292942
-0.00031745340675115585 -0.002207702724263072 -0.0034581958316266537
-0.0003203890810254961 -0.0023905979469418526 -0.0032648663036525245
-0.00042105361353605986 -0.0024584399070590734 -0.003137962892651558
-0.0004630943294614554 -0.0024264652747660875 -0.0030686885584145784
-0.00036171305691823363 -0.0021548490040004253 -0.003137771273031831
-0.0001455355522921309 -0.001831554574891925 -0.0032366903033107515
7.072663720464334e-5 -0.0017580930143594742 -0.0031913684215396647
0.00020198317361064258 -0.0017237889114767315 -0.0031234389171004295
0.00024425858282484114 -0.0016214300412684681 -0.0030948009807616472
0.0002273943391628563 -0.0016224106075242162 -0.003006499959155917
0.00017962048877961934 -0.0016471240669488907 -0.0029044966213405132
0.0001230136549565941 -0.001599427196197212 -0.0028442994225770235
7.320909935515374e-5 -0.0015173957217484713 -0.0028039254248142242
3.8772002881160006e-5 -0.0014629487413913012 -0.002747625345364213
2.1685751562472433e-5 -0.0014551238855347037 -0.002664408180862665
1.9110158973489888e-5 -0.001474617631174624 -0.0025654183700680733
2.5710261979838833e-5 -0.0014837003545835614 -0.0024724395480006933
3.630685023381375e-5 -0.0014553428627550602 -0.0024010767228901386
4.732568413601257e-5 -0.0013903731014579535 -0.0023508521262556314
5.6640183174749836e-5 -0.0013104313984513283 -0.002309271600097418
6.314866186585277e-5 -0.0012388163013383746 -0.002262883586809039
6.649269198533148e-5 -0.0011862224200740457 -0.0022055136505514383
6.683685205643997e-5 -0.0011515782680362463 -0.0021377806551754475
6.468839274020866e-5 -0.0011291272239759564 -0.002063007792457938
6.0754482547054074e-5 -0.0011126975296065211 -0.001984758535400033
5.583223173744046e-5 -0.0010966750560328364 -0.0019062740029767158
5.072306885267608e-5 -0.001076239044778049 -0.0018303378019481897
4.616025398718193e-5 -0.0010475660674273968 -0.001759157283231616
4.268924021744169e-5 -0.0010085178073495626 -0.0016939667984843254
4.052436997881159e-5 -0.0009596095187589526 -0.001634469022974372
3.9547361666336656e-5 -0.0009038466960191727 -0.001578928786329925
3.943082629120909e-5 -0.000845563132315874 -0.0015248438576236367
3.97539661207702e-5 -0.0007893782458268106 -0.0014695472782477736
4.0087012166623026e-5 -0.0007394633139483631 -0.0014106306480243802
4.004923903266899e-5 -0.00069906294811517 -0.001346220844425261
3.934526102966629e-5 -0.0006698542856611311 -0.0012753495248034596
3.778377140406519e-5 -0.0006500710733234882 -0.00119903648737818
3.528250090312213e-5 -0.0006335016223601997 -0.001120867789722979
3.186270623700693e-5 -0.0006117239827290177 -0.0010457062162458897
2.7636049708235078e-5 -0.000577154743950814 -0.0009779297979548573
2.2786460249335505e-5 -0.000524629489518702 -0.0009205203386954963
1.7549085896462202e-5 -0.0004499320057220757 -0.0008759119664318861
1.21881839731941e-5 -0.000347853172570467 -0.0008471122710034251
6.97543964633951e-6 -0.00021520198788493874 -0.0008359634666703641
2.169919071093318e-6 -5.5460972362197936e-5 -0.0008404550608247519
-1.999401547436719e-6 0.00012001192953903227 -0.0008540293783880769
-5.347871592675801e-6 0.0002936967939604074 -0.0008665714412927628
-7.745714356133249e-6 0.0004451589775271714 -0.0008662831969559193
-9.124661119130906e-6 0.0005547613836824894 -0.0008418272482231259
-4.777432877745014e-6 0.00029840448405593634 -0.00041111797327175736

CELL_DATA 50

VECTORS liftinglineloading               float
0.13067054748535156 0.11006280779838562 -0.05132313072681427
0.19612371921539307 0.19008873403072357 -0.08863983303308487
-0.07499367743730545 0.03638888895511627 -0.016968417912721634
0.12379971891641617 0.06715920567512512 -0.0313168540596962
0.09473855048418045 0.11178608983755112 -0.05212671309709548
-0.5314109921455383 0.3121383786201477 -0.14555251598358154
-1.494576334953308 0.6482897996902466 -0.3023024797439575
-2.6748926639556885 0.9507361650466919 -0.4433355629444122
-4.012002944946289 1.2463592290878296 -0.581186830997467
-5.1841325759887695 1.470831036567688 -0.685859739780426
-5.9298996925354 1.5722748041152954 -0.7331637740135193
-6.696527481079102 1.685779809951782 -0.7860920429229736
-7.286682128906251 1.732598066329956 -0.8079237341880798
-6.962618827819824 1.6112011671066284 -0.7513154149055481
-6.786583423614502 1.5019159317016602 -0.7003549337387085
-6.980711936950684 1.4629745483398438 -0.6821962594985962
-6.967951297760011 1.4100881814956665 -0.6575348973274231
-7.391690731048585 1.4139394760131836 -0.6593307852745056
-7.604950904846191 1.394494652748108 -0.6502634882926941
-7.941294193267823 1.3942519426345825 -0.6501503586769104
-8.377398490905762 1.3973475694656372 -0.6515938639640808
-8.755256652832031 1.3567626476287842 -0.6326688528060913
-8.813000679016113 1.3099035024642944 -0.6108180284500122
-9.147655487060547 1.2926461696624756 -0.6027708053588867
-9.484972953796387 1.2682253122329712 -0.591383159160614
-9.866678237915039 1.2468761205673218 -0.5814278721809387
-10.260842323303223 1.2194527387619019 -0.5686401724815369
-10.60775375366211 1.181374192237854 -0.5508838295936584
-10.989435195922852 1.1412091255187988 -0.5321545600891113
-11.387495994567871 1.0977376699447632 -0.5118834972381592
-11.521987915039062 1.0479120016098022 -0.48864939808845514
-12.091973304748535 1.0204130411148071 -0.4758264422416687
-12.148371696472168 0.9599934816360474 -0.44765231013298035
-12.184054374694824 0.9200475215911865 -0.4290252029895782
-12.193976402282715 0.8871061205863953 -0.41366437077522283
-12.15505313873291 0.856059730052948 -0.39918720722198486
-12.092506408691406 0.8381028175354004 -0.39081376791000366
-11.959609031677246 0.8247185349464417 -0.3845725655555725
-11.791565895080566 0.8041042685508728 -0.3749600052833557
-11.43277645111084 0.7844159007072449 -0.3657791316509247
-11.152894020080566 0.7619363069534302 -0.3552967309951782
-10.520903587341309 0.7382551431655884 -0.3442540466785431
-9.535938262939453 0.8365820050239564 -0.39010459184646606
-8.22484016418457 0.8993213176727295 -0.4193604290485382
-7.101012706756591 1.0640360116958618 -0.4961681365966797
-5.992659091949463 1.1246474981307983 -0.5244317650794983
-5.167361736297607 1.1637247800827026 -0.5426537394523621
-4.219778060913086 1.2071300745010376 -0.5628939867019653
-3.1087520122528076 1.2335431575775146 -0.5752106308937073
-1.860888481140137 1.2903889417648315 -0.6017182469367981