# vtk DataFile Version 4.0
 
ASCII
DATASET UNSTRUCTURED_GRID
POINTS 51 float
0.0029719590675085783 -0.002002058085054159 0.007321756798774003
0.002608868759125471 -0.005174558609724045 0.009976522997021675
0.0023370522540062666 -0.008046647533774376 0.012871101498603819
0.0019680906552821398 -0.010774844326078892 0.01581895723938942
0.0014949451433494687 -0.013373420573771 0.018803086131811142
0.001041901996359229 -0.015976278111338615 0.021663906052708626
0.0007715190295130014 -0.018805252388119698 0.024137046188116074
0.0007508308626711369 -0.02171522192656994 0.02639545500278473
0.0009129723184742035 -0.024480441585183144 0.02870816364884377
0.0011547972681000829 -0.02726852893829346 0.030875414609909054
0.0014014894841238856 -0.030012892559170723 0.03297657147049904
0.0016095859464257958 -0.03262672200798988 0.035115085542201996
0.0017607304034754632 -0.03516159579157829 0.037229493260383606
0.0018556131981313229 -0.03767342120409012 0.03925316035747528
0.0019071486312896013 -0.0401572622358799 0.04119197279214859
0.0019331572111696005 -0.0425771102309227 0.043088845908641815
0.0019505200907588003 -0.04489976540207863 0.04498334601521492
0.0019713775254786015 -0.047117870301008224 0.04688423499464989
0.002001940505579114 -0.04925423488020897 0.04876433312892914
0.0020439913496375084 -0.051341630518436425 0.0505845881998539
0.0020965919829905033 -0.05340163782238961 0.052319277077913284
0.002157271606847644 -0.05543490126729012 0.05396763607859611
0.0022228893358260393 -0.057428412139415734 0.055545158684253686
0.0022902570199221373 -0.059366945177316666 0.05707000195980073
0.0023565629962831736 -0.06123907864093781 0.058555770665407174
0.0024196337908506393 -0.06303813308477402 0.06001042574644089
0.002478071954101324 -0.06476185470819473 0.06143665686249734
0.002531298203393817 -0.06641189008951187 0.06283249706029892
0.0025795181281864643 -0.06799314171075821 0.06419210135936737
0.0026236188132315874 -0.06951294094324112 0.06550674885511398
0.002664896659553051 -0.07097934931516647 0.06676680594682693
0.002704667393118143 -0.07239894568920135 0.06796445697546005
0.0027439913246780634 -0.07377532869577408 0.06909538805484772
0.0027835292275995016 -0.07510863989591599 0.07015945762395859
0.0028234992641955614 -0.07639562338590622 0.07116053253412247
0.0028637030627578497 -0.07763022929430008 0.07210582494735718
0.0029035976622253656 -0.0788043811917305 0.07300495356321335
0.0029423937667161226 -0.07990953326225281 0.07386810332536697
0.0029791651759296656 -0.08094025403261185 0.07470176368951797
0.0030129586812108755 -0.08189719915390015 0.07550512999296188
0.003042890690267086 -0.08278744667768478 0.07626979798078537
0.003068230813369155 -0.08362290263175964 0.07698153704404831
0.0030884635634720325 -0.08441831171512604 0.07762280851602554
0.0031033288687467575 -0.08519185334444046 0.07817193120718002
0.003112840000540018 -0.08596599102020264 0.0786021426320076
0.0031172798480838537 -0.0867636427283287 0.07888612151145935
0.0031171797309070826 -0.08760210126638412 0.07900326699018478
0.0031132809817790985 -0.08848743140697479 0.07894634455442429
0.0031064841896295547 -0.08941091597080231 0.07872575521469116
0.0030977895949035883 -0.09034828096628189 0.07837041467428207
0.003088234690949321 -0.09126165509223938 0.07792545109987259

CELLS 50 150
2 0 1
2 1 2
2 2 3
2 3 4
2 4 5
2 5 6
2 6 7
2 7 8
2 8 9
2 9 10
2 10 11
2 11 12
2 12 13
2 13 14
2 14 15
2 15 16
2 16 17
2 17 18
2 18 19
2 19 20
2 20 21
2 21 22
2 22 23
2 23 24
2 24 25
2 25 26
2 26 27
2 27 28
2 28 29
2 29 30
2 30 31
2 31 32
2 32 33
2 33 34
2 34 35
2 35 36
2 36 37
2 37 38
2 38 39
2 39 40
2 40 41
2 41 42
2 42 43
2 43 44
2 44 45
2 45 46
2 46 47
2 47 48
2 48 49
2 49 50

CELL_TYPES 50
4
4
4
4
4
4
4
4
4
4
4
4
4
4
4
4
4
4
4
4
4
4
4
4
4
4
4
4
4
4
4
4
4
4
4
4
4
4
4
4
4
4
4
4
4
4
4
4
4
4

POINT_DATA 51

SCALARS zone float
LOOKUP_TABLE default
1.0
1.0
1.0
1.0
1.0
1.0
1.0
1.0
1.0
1.0
1.0
1.0
1.0
1.0
1.0
1.0
1.0
1.0
1.0
1.0
1.0
1.0
1.0
1.0
1.0
1.0
1.0
1.0
1.0
1.0
1.0
1.0
1.0
1.0
1.0
1.0
1.0
1.0
1.0
1.0
1.0
1.0
1.0
1.0
1.0
1.0
1.0
1.0
1.0
1.0
1.0

VECTORS normals float
-0.00018154516874346882 -0.0015862502623349428 0.0013273830991238356
-0.00031745340675115585 -0.0030222944915294647 0.0027746723499149084
-0.0003203890810254961 -0.0028001428581774235 0.0029212175868451595
-0.00042105361353605986 -0.002663386519998312 0.002965992083773017
-0.0004630943294614554 -0.002600716892629862 0.002922473940998316
-0.00036171305691823363 -0.002715915907174349 0.0026669802609831095
-0.0001455355522921309 -0.002869471674785018 0.0023657744750380516
7.072663720464334e-5 -0.0028375948313623667 0.0022855589631944895
0.00020198317361064258 -0.00277665420435369 0.0022399802692234516
0.00024425858282484114 -0.0027662257198244333 0.0021342034451663494
0.0002273943391628563 -0.0026790958363562822 0.0021198356989771128
0.00017962048877961934 -0.0025743506848812103 0.0021264611277729273
0.0001230136549565941 -0.002523350529372692 0.002069035777822137
7.320909935515374e-5 -0.002497834386304021 0.0019812395330518484
3.8772002881160006e-5 -0.0024518442805856466 0.0019178434740751984
2.1685751562472433e-5 -0.0023712501861155033 0.0018956869607791307
1.9110158973489888e-5 -0.002270379336550832 0.0018976951250806453
2.5710261979838833e-5 -0.002177235670387745 0.0018904942553490402
3.630685023381375e-5 -0.002111881272867322 0.0018501755548641083
4.732568413601257e-5 -0.0020737017039209604 0.0017774713924154641
5.6640183174749836e-5 -0.002046634443104267 0.0016915238229557872
6.314866186585277e-5 -0.002013387158513069 0.0016129415016621351
6.649269198533148e-5 -0.0019660217221826315 0.0015511844540014863
6.683685205643997e-5 -0.001905333367176354 0.0015053049428388476
6.468839274020866e-5 -0.0018355951178818941 0.0014702107291668653
6.0754482547054074e-5 -0.0017613875679671764 0.0014404428657144308
5.583223173744046e-5 -0.001686877803876996 0.0014110351912677288
5.072306885267608e-5 -0.0016156439669430254 0.0013777234125882387
4.616025398718193e-5 -0.0015505237970501184 0.001337125664576888
4.268924021744169e-5 -0.0014931043842807412 0.001287350314669311
4.052436997881159e-5 -0.0014430033043026924 0.0012288534780964255
3.9547361666336656e-5 -0.0013979899231344461 0.0011642933823168278
3.943082629120909e-5 -0.0013548475690186024 0.001097503467462957
3.97539661207702e-5 -0.0013101474614813924 0.0010325700277462602
4.0087012166623026e-5 -0.0012607935350388288 0.0009731826721690594
4.004923903266899e-5 -0.0012043777387589216 0.0009222113876603544
3.934526102966629e-5 -0.0011396551271900535 0.0008811398292891682
3.778377140406519e-5 -0.0010679367696866393 0.0008484055288136005
3.528250090312213e-5 -0.0009938329458236694 0.000818513974081725
3.186270623700693e-5 -0.0009235948091372846 0.0007840155158191919
2.7636049708235078e-5 -0.0008628509822301567 0.0007382021867670119
2.2786460249335505e-5 -0.0008154346141964196 0.0006765058496966958
1.7549085896462202e-5 -0.0007844750070944428 0.000595197023358196
1.21881839731941e-5 -0.000773838663008064 0.0004896679893136024
6.97543964633951e-6 -0.0007858938770368695 0.00035709611256606877
2.169919071093318e-6 -0.0008180559379979969 0.00020056188805028796
-1.999401547436719e-6 -0.0008618946303613485 3.011197259183973e-5
-5.347871592675801e-6 -0.0009044061880558729 -0.00013875632430426776
-7.745714356133249e-6 -0.0009304234408773482 -0.00028796750120818615
-9.124661119130906e-6 -0.0009253713069483638 -0.0004001515335403382
-4.777432877745014e-6 -0.0004566895659081638 -0.0002224811614723876

CELL_DATA 50

VECTORS liftinglineloading               float
0.039237696677446365 -0.03218676522374153 -0.0459674634039402
-0.015643903985619545 -0.0026856455951929092 -0.0038354995194822554
0.056505993008613586 -0.04649234190583229 -0.06639794260263443
-0.015009760856628418 -0.0808384120464325 -0.1154492199420929
-0.46956709027290344 -0.1800423562526703 -0.25712713599205017
-1.2542171478271484 -0.31142228841781616 -0.4447571337223053
-2.3240139484405518 -0.471938818693161 -0.6739984750747681
-3.475634336471557 -0.635540246963501 -0.9076455235481261
-4.886740684509277 -0.8161799311637878 -1.1656256914138794
-6.147608757019043 -0.9608517289161683 -1.3722385168075562
-7.15789031982422 -1.058123230934143 -1.5111565589904785
-7.8654069900512695 -1.1165518760681152 -1.5946012735366821
-8.331050872802734 -1.1380465030670166 -1.6252988576889038
-7.990046501159668 -1.064271092414856 -1.5199365615844727
-8.14957046508789 -1.024155616760254 -1.4626457691192627
-8.40739631652832 -0.9980289936065675 -1.4253331422805786
-8.492905616760254 -0.9569859504699707 -1.3667175769805908
-8.767492294311523 -0.9328176975250244 -1.3322017192840576
-8.996591567993164 -0.9157541990280151 -1.3078324794769287
-9.053723335266113 -0.9115352034568788 -1.301807165145874
-9.382038116455078 -0.9017941951751709 -1.2878955602645874
-9.615979194641113 -0.8701080083847046 -1.2426429986953735
-9.583784103393555 -0.8349397778511047 -1.1924175024032593
-9.693017959594727 -0.8165056705474854 -1.166090965270996
-9.81447982788086 -0.7950847744941711 -1.1354987621307373
-10.009820938110352 -0.7792239785194397 -1.112847089767456
-10.273372650146484 -0.7616813778877258 -1.0877937078475952
-10.561389923095703 -0.7381488084793091 -1.0541857481002808
-10.873833656311035 -0.7140331864356995 -1.0197449922561646
-11.218240737915039 -0.6881123781204224 -0.9827262759208679
-11.368182182312012 -0.6569997668266296 -0.938292920589447
-11.945673942565918 -0.6403782367706299 -0.9145548939704895
-12.021347999572754 -0.6027592420578003 -0.860829472541809
-12.087532043457031 -0.5773392915725708 -0.8245259523391724
-12.120600700378418 -0.5564795136451721 -0.7947350740432739
-12.098881721496582 -0.5369971990585327 -0.7669114470481873
-12.025014877319336 -0.5263868570327759 -0.7517583966255188
-11.899563789367676 -0.5181668996810913 -0.7400190830230713
-11.729289054870605 -0.5055302977561951 -0.7219720482826233
-11.36040210723877 -0.4935373663902282 -0.7048444151878357
-11.013916969299316 -0.4803991913795472 -0.6860811710357666
-10.362678527832031 -0.46516031026840216 -0.664317786693573
-9.363360404968262 -0.5267391204833984 -0.7522614598274231
-8.031841278076172 -0.5653840899467468 -0.8074521422386169
-6.927016735076905 -0.6674816012382507 -0.9532625079154968
-5.79713249206543 -0.7039632797241211 -1.0053637027740479
-4.9466233253479 -0.7272139191627502 -1.0385690927505493
-3.976776361465454 -0.7530105710029602 -1.0754106044769287
-3.043022871017456 -0.7680524587631226 -1.0968925952911377
-1.6536172628402712 -0.8018180727958679 -1.1451148986816406