# vtk DataFile Version 4.0
 
ASCII
DATASET UNSTRUCTURED_GRID
POINTS 51 float
0.0029719590675085783 -0.004908788949251175 0.005789658986032009
0.002608868759125471 -0.008906004019081593 0.006854937411844731
0.0023370522540062666 -0.012732301838696003 0.008264519274234772
0.0019680906552821398 -0.016450705006718636 0.009783199056982994
0.0014949451433494687 -0.020066961646080017 0.011389531195163727
0.001041901996359229 -0.023634986951947212 0.012882299721240996
0.0007715190295130014 -0.02724410220980644 0.013928149826824665
0.0007508308626711369 -0.030835876241326332 0.014745157212018965
0.0009129723184742035 -0.03431940823793411 0.015672551468014717
0.0011547972681000829 -0.037762194871902466 0.016458451747894287
0.0014014894841238856 -0.041137419641017914 0.01720292679965496
0.0016095859464257958 -0.04441012814640999 0.018036428838968277
0.0017607304034754632 -0.047601088881492615 0.01888144761323929
0.0018556131981313229 -0.0507328175008297 0.019653966650366783
0.0019071486312896013 -0.05380332097411156 0.020361412316560745
0.0019331572111696005 -0.056798100471496575 0.021057892590761185
0.0019505200907588003 -0.05970378965139389 0.021793296560645103
0.0019713775254786015 -0.0625174269080162 0.02257867529988289
0.002001940505579114 -0.06524819135665894 0.02337975613772869
0.0020439913496375084 -0.06790929287672043 0.024147294461727142
0.0020965919829905033 -0.0705094039440155 0.02484886161983013
0.002157271606847644 -0.07304879277944565 0.02548348531126976
0.0022228893358260393 -0.07552221417427063 0.026070715859532356
0.0022902570199221373 -0.07792355120182037 0.02663343399763107
0.0023565629962831736 -0.08024819195270538 0.02718879655003548
0.0024196337908506393 -0.08249345421791077 0.027746848762035366
0.002478071954101324 -0.0846584290266037 0.028310976922512058
0.002531298203393817 -0.08674377202987671 0.028878701850771907
0.0025795181281864643 -0.08875147253274918 0.029442658647894863
0.0026236188132315874 -0.09068446606397629 0.02999183721840382
0.002664896659553051 -0.0925460085272789 0.030514104291796684
0.002704667393118143 -0.09433874487876892 0.03099959716200829
0.0027439913246780634 -0.09606412798166275 0.03144288808107376
0.0027835292275995016 -0.09772221744060516 0.03184378147125244
0.0028234992641955614 -0.09931168705224991 0.03220715746283531
0.0028637030627578497 -0.10083011537790298 0.03254212066531181
0.0029035976622253656 -0.10227425396442413 0.032860785722732544
0.0029423937667161226 -0.10364064574241638 0.033176008611917496
0.0029791651759296656 -0.10492711514234541 0.033495958894491196
0.0030129586812108755 -0.10613392293453217 0.033819638192653656
0.003042890690267086 -0.10726391524076462 0.03413642197847366
0.003068230813369155 -0.1083218902349472 0.03442839905619621
0.0030884635634720325 -0.10931379348039627 0.034673433750867844
0.0031033288687467575 -0.11024692654609679 0.03484419733285904
0.003112840000540018 -0.11113034933805464 0.034906934946775436
0.0031172798480838537 -0.11197327822446823 0.03482721000909805
0.0031171797309070826 -0.11278269439935686 0.03457902744412422
0.0031132809817790985 -0.11356101930141448 0.0341532863676548
0.0031064841896295547 -0.11430475115776063 0.033563077449798584
0.0030977895949035883 -0.11500411480665208 0.03284488245844841
0.003088234690949321 -0.11564386636018753 0.03205559775233269

CELLS 50 150
2 0 1
2 1 2
2 2 3
2 3 4
2 4 5
2 5 6
2 6 7
2 7 8
2 8 9
2 9 10
2 10 11
2 11 12
2 12 13
2 13 14
2 14 15
2 15 16
2 16 17
2 17 18
2 18 19
2 19 20
2 20 21
2 21 22
2 22 23
2 23 24
2 24 25
2 25 26
2 26 27
2 27 28
2 28 29
2 29 30
2 30 31
2 31 32
2 32 33
2 33 34
2 34 35
2 35 36
2 36 37
2 37 38
2 38 39
2 39 40
2 40 41
2 41 42
2 42 43
2 43 44
2 44 45
2 45 46
2 46 47
2 47 48
2 48 49
2 49 50

CELL_TYPES 50
4
4
4
4
4
4
4
4
4
4
4
4
4
4
4
4
4
4
4
4
4
4
4
4
4
4
4
4
4
4
4
4
4
4
4
4
4
4
4
4
4
4
4
4
4
4
4
4
4
4

POINT_DATA 51

SCALARS zone float
LOOKUP_TABLE default
1.0
1.0
1.0
1.0
1.0
1.0
1.0
1.0
1.0
1.0
1.0
1.0
1.0
1.0
1.0
1.0
1.0
1.0
1.0
1.0
1.0
1.0
1.0
1.0
1.0
1.0
1.0
1.0
1.0
1.0
1.0
1.0
1.0
1.0
1.0
1.0
1.0
1.0
1.0
1.0
1.0
1.0
1.0
1.0
1.0
1.0
1.0
1.0
1.0
1.0
1.0

VECTORS normals float
-0.00018154516874346882 -0.001998607302084565 0.0005326392711140215
-0.00031745340675115585 -0.003911756444722414 0.0012374301441013813
-0.0003203890810254961 -0.0037723509594798092 0.00146413070615381
-0.00042105361353605986 -0.0036673303693532944 0.0015625059604644775
-0.0004630943294614554 -0.0035921407397836442 0.0015495504485443234
-0.00036171305691823363 -0.0035885702818632126 0.0012693093158304691
-0.0001455355522921309 -0.003600443946197629 0.0009314288035966456
7.072663720464334e-5 -0.0035376532468944784 0.0008722005877643824
0.00020198317361064258 -0.003463159780949354 0.000856646744068712
0.00024425858282484114 -0.0034090052358806138 0.0007651876658201218
0.0002273943391628563 -0.003323966637253761 0.0007889888947829604
0.00017962048877961934 -0.0032318353187292814 0.0008392605814151467
0.0001230136549565941 -0.0031613444443792105 0.0008087692549452187
7.320909935515374e-5 -0.003101114882156253 0.0007399824098683894
3.8772002881160006e-5 -0.003032641252502799 0.0007019622134976089
2.1685751562472433e-5 -0.0029502343386411667 0.00071594218024984
1.9110158973489888e-5 -0.0028596629854291677 0.0007603921694681048
2.5710261979838833e-5 -0.002772203180938959 0.0007932301377877593
3.630685023381375e-5 -0.0026959325186908245 0.0007843088824301958
4.732568413601257e-5 -0.0026306037325412035 0.0007345519843511283
5.6640183174749836e-5 -0.002569749718531966 0.000668096065055579
6.314866186585277e-5 -0.0025064069777727127 0.0006109272944740951
6.649269198533148e-5 -0.00243737967684865 0.0005749738775193691
6.683685205643997e-5 -0.002362987957894802 0.0005590408691205084
6.468839274020866e-5 -0.002284951973706484 0.0005567073822021484
6.0754482547054074e-5 -0.0022051166743040085 0.0005610900116153061
5.583223173744046e-5 -0.002125159837305546 0.0005659267771989107
5.072306885267608e-5 -0.0020465217530727386 0.0005658408044837415
4.616025398718193e-5 -0.001970345387235284 0.0005565676838159561
4.268924021744169e-5 -0.0018972698599100113 0.000535722472704947
4.052436997881159e-5 -0.0018271410372108219 0.0005038798553869128
3.9547361666336656e-5 -0.0017590607749298215 0.0004643920401576906
3.943082629120909e-5 -0.001691733836196363 0.0004220926493871957
3.97539661207702e-5 -0.001623779768124223 0.0003821339923888445
4.0087012166623026e-5 -0.0015539517626166344 0.0003491686366032809
4.004923903266899e-5 -0.001481280312873423 0.00032681532320566475
3.934526102966629e-5 -0.0014052641345188022 0.000316944788210094
3.778377140406519e-5 -0.0013264310546219349 0.0003175869642291218
3.528250090312213e-5 -0.0012466374319046736 0.0003218136553186923
3.186270623700693e-5 -0.0011684003984555602 0.00032023133826442063
2.7636049708235078e-5 -0.0010939863277599216 0.0003043818287551403
2.2786460249335505e-5 -0.0010249384213238955 0.00026850495487451553
1.7549085896462202e-5 -0.0009625169332139194 0.00020789825066458437
1.21881839731941e-5 -0.0009082786273211241 0.00011675158020807432
6.97543964633951e-6 -0.0008631770615465939 -8.494114808854647e-6
2.169919071093318e-6 -0.0008261715993285179 -0.00016395458078477532
-1.999401547436719e-6 -0.0007938676862977444 -0.00033696170430630445
-5.347871592675801e-6 -0.0007610294269397855 -0.0005079745315015316
-7.745714356133249e-6 -0.0007215497316792607 -0.0006542011396959424
-9.124661119130906e-6 -0.0006695598713122308 -0.0007537392666563392
-4.777432877745014e-6 -0.00031987670809030533 -0.00039464174187742174

CELL_DATA 50

VECTORS liftinglineloading               float
0.04262769594788551 -0.010308679193258286 -0.058463424444198615
-0.018960386514663696 -0.00027878989931195974 -0.001581096090376377
0.059365995228290565 -0.0135177792981267 -0.07666313648223877
0.003494950942695141 -0.023448791354894638 -0.1329847127199173
-0.41160884499549866 -0.05173628404736518 -0.2934110462665558
-1.2036948204040527 -0.09216950088739395 -0.5227192044258118
-2.260058641433716 -0.14142905175685883 -0.8020840287208557
-3.398125410079956 -0.19086402654647827 -1.0824437141418457
-4.7737717628479 -0.2452685683965683 -1.3909871578216553
-6.0372209548950195 -0.28901925683021545 -1.63910973072052
-7.04944086074829 -0.31799474358558655 -1.803437829017639
-7.837690830230713 -0.3371390104293823 -1.9120104312896729
-8.351929664611816 -0.3441840708255768 -1.9519649744033813
-8.074479103088379 -0.3228840231895447 -1.831166386604309
-8.165294647216797 -0.3099023103713989 -1.7575434446334837
-8.362194061279297 -0.30107495188713074 -1.7074810266494753
-8.401257514953613 -0.28814905881881714 -1.6341745853424072
-8.653870582580566 -0.2809370160102844 -1.5932730436325073
-8.860611915588379 -0.2757362723350525 -1.563778042793274
-8.927000999450684 -0.2744014263153076 -1.5562077760696411
-9.486872673034668 -0.2733440101146698 -1.550210952758789
-9.74327564239502 -0.2639298737049103 -1.4968206882476807
-9.727835655212402 -0.25328323245048523 -1.4364405870437622
-9.84955883026123 -0.24759763479232785 -1.40419602394104
-9.97570514678955 -0.24084709584712982 -1.3659117221832275
-10.175552368164062 -0.2358141392469406 -1.3373684883117676
-10.44929313659668 -0.23027251660823822 -1.3059402704238892
-10.738757133483887 -0.22318166494369504 -1.265726089477539
-11.064950942993164 -0.21567989885807037 -1.2231814861297607
-11.41788101196289 -0.20756299793720245 -1.1771482229232788
-11.557507514953613 -0.19790667295455933 -1.1223844289779663
-12.114518165588379 -0.19261588156223297 -1.0923789739608765
-12.201303482055664 -0.18074090778827667 -1.025032639503479
-12.247115135192871 -0.17325694859027863 -0.9825890064239502
-12.266546249389648 -0.16713804006576538 -0.9478869438171387
-12.234456062316895 -0.16143754124641418 -0.9155578017234802
-12.152532577514648 -0.15841048955917358 -0.8983905911445618
-11.998798370361328 -0.15607920289039612 -0.8851690888404846
-11.820476531982422 -0.15235215425491333 -0.864031970500946
-11.44008731842041 -0.14885418117046356 -0.8441939949989318
-11.139256477355957 -0.14476412534713745 -0.8209981918334961
-10.481963157653809 -0.14048853516578674 -0.7967501282691956
-9.471680641174316 -0.15929068624973297 -0.9033823609352111
-8.136895179748535 -0.17120930552482605 -0.970976233482361
-7.027308940887451 -0.20251643657684326 -1.1485278606414795
-5.893994331359863 -0.21378806233406067 -1.2124522924423218
-5.040814399719238 -0.22093410789966583 -1.2529796361923218
-4.066837787628174 -0.22885608673095706 -1.2979073524475098
-3.1254098415374756 -0.23355011641979215 -1.324528455734253
-1.7088419198989868 -0.24388687312602997 -1.3831511735916138