# vtk DataFile Version 4.0
 
ASCII
DATASET UNSTRUCTURED_GRID
POINTS 51 float
0.0029719590675085783 0.003172669094055891 0.00689568929374218
0.002608868759125471 0.0024488435592502356 0.010968602262437344
0.0023370522540062666 0.002109294990077615 0.015032120980322361
0.0019680906552821398 0.001914220745675266 0.01904396153986454
0.0014949451433494687 0.0018417559331282971 0.023000268265604973
0.001041901996359229 0.0016867514932528138 0.02686486765742302
0.0007715190295130014 0.0011093352222815156 0.030577832832932476
0.0007508308626711369 0.0003318469680380076 0.034178368747234344
0.0009129723184742035 -0.00029985420405864716 0.03772745281457901
0.0011547972681000829 -0.0010425710352137685 0.04117981344461441
0.0014014894841238856 -0.0017942787380889058 0.04455343633890152
0.0016095859464257958 -0.0024219753686338663 0.04787176847457886
0.0017607304034754632 -0.003004687139764428 0.05112088471651078
0.0018556131981313229 -0.003628071630373597 0.054285671561956406
0.0019071486312896013 -0.004284559283405542 0.057367473840713494
0.0019331572111696005 -0.004918983206152916 0.06037601083517074
0.0019505200907588003 -0.005480477120727301 0.06332025676965714
0.0019713775254786015 -0.005957776214927435 0.06620219349861145
0.002001940505579114 -0.006385823246091604 0.06901565939188004
0.0020439913496375084 -0.0068148262798786155 0.07175180315971375
0.0020965919829905033 -0.007277844939380884 0.07440480589866638
0.002157271606847644 -0.007775871083140374 0.07697447389364243
0.0022228893358260393 -0.008288975805044174 0.07946433126926422
0.0022902570199221373 -0.008793827146291733 0.08187849819660187
0.0023565629962831736 -0.009272933006286621 0.0842200443148613
0.0024196337908506393 -0.009716055355966091 0.08649078756570816
0.002478071954101324 -0.010119738057255745 0.08869132399559021
0.002531298203393817 -0.010486509650945663 0.09082122147083282
0.0025795181281864643 -0.010823880322277546 0.09287915378808975
0.0026236188132315874 -0.011143074370920658 0.09486313164234161
0.002664896659553051 -0.011456463485956192 0.0967709869146347
0.002704667393118143 -0.011774100363254547 0.09860093891620636
0.0027439913246780634 -0.012101521715521812 0.10035201162099838
0.0027835292275995016 -0.012438924051821232 0.10202416777610779
0.0028234992641955614 -0.012781337834894657 0.1036182940006256
0.0028637030627578497 -0.013119472190737724 0.10513601452112198
0.0029035976622253656 -0.01344097964465618 0.1065795198082924
0.0029423937667161226 -0.013732753694057466 0.10795111209154128
0.0029791651759296656 -0.013986464589834213 0.10925226658582687
0.0030129586812108755 -0.014203133061528208 0.11048279702663422
0.003042890690267086 -0.014393582940101624 0.11164079606533052
0.003068230813369155 -0.014576083049178125 0.11272304505109788
0.0030884635634720325 -0.014773202128708363 0.11372556537389755
0.0031033288687467575 -0.015012797899544239 0.11464343965053558
0.003112840000540018 -0.015329286456108093 0.11547061055898666
0.0031172798480838537 -0.015757782384753227 0.11620087176561356
0.0031171797309070826 -0.016324782744050026 0.1168295592069626
0.0031132809817790985 -0.017039570957422256 0.11735503375530244
0.0031064841896295547 -0.01788879558444023 0.1177796572446823
0.0030977895949035883 -0.018835267052054405 0.11810997128486633
0.003088234690949321 -0.01982097141444683 0.11835622042417526

CELLS 50 150
2 0 1
2 1 2
2 2 3
2 3 4
2 4 5
2 5 6
2 6 7
2 7 8
2 8 9
2 9 10
2 10 11
2 11 12
2 12 13
2 13 14
2 14 15
2 15 16
2 16 17
2 17 18
2 18 19
2 19 20
2 20 21
2 21 22
2 22 23
2 23 24
2 24 25
2 25 26
2 26 27
2 27 28
2 28 29
2 29 30
2 30 31
2 31 32
2 32 33
2 33 34
2 34 35
2 35 36
2 36 37
2 37 38
2 38 39
2 39 40
2 40 41
2 41 42
2 42 43
2 43 44
2 44 45
2 45 46
2 46 47
2 47 48
2 48 49
2 49 50

CELL_TYPES 50
4
4
4
4
4
4
4
4
4
4
4
4
4
4
4
4
4
4
4
4
4
4
4
4
4
4
4
4
4
4
4
4
4
4
4
4
4
4
4
4
4
4
4
4
4
4
4
4
4
4

POINT_DATA 51

SCALARS zone float
LOOKUP_TABLE default
1.0
1.0
1.0
1.0
1.0
1.0
1.0
1.0
1.0
1.0
1.0
1.0
1.0
1.0
1.0
1.0
1.0
1.0
1.0
1.0
1.0
1.0
1.0
1.0
1.0
1.0
1.0
1.0
1.0
1.0
1.0
1.0
1.0
1.0
1.0
1.0
1.0
1.0
1.0
1.0
1.0
1.0
1.0
1.0
1.0
1.0
1.0
1.0
1.0
1.0
1.0

VECTORS normals float
-0.00018154516874346882 -0.00036191282561048865 0.002036456484347582
-0.00031745340675115585 -0.0005316870519891381 0.0040682158432900906
-0.0003203890810254961 -0.00026731134857982397 0.004037679638713598
-0.00042105361353605986 -0.00013376954302657396 0.003984073642641306
-0.0004630943294614554 -0.00011373464076314123 0.003910453524440527
-0.00036171305691823363 -0.0003662104136310518 0.0037887825164943938
-0.0001455355522921309 -0.0006774522480554879 0.0036567493807524443
7.072663720464334e-5 -0.0007045946549624205 0.0035748104564845566
0.00020198317361064258 -0.0006872089579701424 0.0035007232800126076
0.00024425858282484114 -0.0007472122670151293 0.0034129901323467497
0.0002273943391628563 -0.0006897022249177098 0.003345977980643511
0.00017962048877961934 -0.0006052042590454221 0.0032837244216352697
0.0001230136549565941 -0.0006030480726622045 0.0032069517765194178
7.320909935515374e-5 -0.0006399358971975744 0.003123294562101364
3.8772002881160006e-5 -0.0006454557878896594 0.003045168472453952
2.1685751562472433e-5 -0.0005979589186608791 0.0029763905331492424
1.9110158973489888e-5 -0.0005193965043872595 0.0029130904003977776
2.5710261979838833e-5 -0.0004526730335783213 0.002847702708095312
3.630685023381375e-5 -0.00042852506157942116 0.002774807857349515
4.732568413601257e-5 -0.0004460110212676227 0.0026945718564093113
5.6640183174749836e-5 -0.00048052243073470885 0.0026113337371498346
6.314866186585277e-5 -0.0005055652000010014 0.002529765246436
6.649269198533148e-5 -0.000508977856952697 0.0024520105216652155
6.683685205643997e-5 -0.0004919787752442062 0.0023778551258146763
6.468839274020866e-5 -0.00046111422125250096 0.0023061446845531464
6.0754482547054074e-5 -0.00042340237996540964 0.0022356414701789618
5.583223173744046e-5 -0.00038522746763192117 0.002165219746530056
5.072306885267608e-5 -0.0003520715399645269 0.0020939132664352655
4.616025398718193e-5 -0.0003282823308836669 0.0020209550857543945
4.268924021744169e-5 -0.0003162914654240012 0.0019459165632724764
4.052436997881159e-5 -0.0003155129379592836 0.0018689010757952929
3.9547361666336656e-5 -0.0003225291147828102 0.0017905110726132987
3.943082629120909e-5 -0.00033241178607568145 0.0017116157105192544
3.97539661207702e-5 -0.000339907972374931 0.0016331410733982918
4.0087012166623026e-5 -0.00034027412766590714 0.001555923605337739
4.004923903266899e-5 -0.00032982081756927073 0.0014806140679866076
3.934526102966629e-5 -0.00030664075165987015 0.0014075484359636903
3.778377140406519e-5 -0.0002727424434851855 0.0013363728066906333
3.528250090312213e-5 -0.00023518955276813358 0.0012658415362238884
3.186270623700693e-5 -0.0002035592042375356 0.001194266020320356
2.7636049708235078e-5 -0.00018647496472112834 0.0011201256420463324
2.2786460249335505e-5 -0.0001898095797514543 0.0010423847706988454
1.7549085896462202e-5 -0.000218357439734973 0.0009601982310414314
1.21881839731941e-5 -0.0002780422510113567 0.0008725213119760156
6.97543964633951e-6 -0.00037249267916195095 0.0007787143695168197
2.169919071093318e-6 -0.0004977484932169318 0.00067947554634884
-1.999401547436719e-6 -0.00064089399529621 0.0005770822754129767
-5.347871592675801e-6 -0.000782006187364459 0.0004750475927721709
-7.745714356133249e-6 -0.0008978476980701089 0.0003774687647819519
-9.124661119130906e-6 -0.0009660879732109606 0.0002882833359763026
-4.777432877745014e-6 -0.0004928526468575001 0.00012312392937019467

CELL_DATA 50

VECTORS liftinglineloading               float
0.033823832869529724 -0.04841078817844391 -0.01297163125127554
-0.006991103291511536 -0.012388902716338634 -0.0033195964060723777
0.05170971527695656 -0.08104231208562851 -0.02171522192656994
-0.03493253514170647 -0.14249862730503082 -0.038182392716407776
-0.5124832987785339 -0.3149181008338928 -0.0843820571899414
-1.3052353858947754 -0.5362944602966309 -0.14369967579841614
-2.3895769119262695 -0.8039249181747437 -0.21541103720664978
-3.559071779251098 -1.0808931589126587 -0.2896244525909424
-4.988107204437256 -1.3857955932617188 -0.3713228106498718
-6.27217435836792 -1.6320650577545166 -0.43731051683425903
-7.314104080200194 -1.8022435903549194 -0.48290970921516413
-8.094271659851074 -1.904651761054993 -0.5103499293327332
-8.577245712280273 -1.9397449493408203 -0.519753098487854
-8.3170166015625 -1.8247495889663694 -0.4889401793479919
-8.43189525604248 -1.7560245990753174 -0.4705253541469574
-8.641548156738281 -1.7068134546279907 -0.4573392868041992
-8.705327987670898 -1.633327007293701 -0.4376486539840698
-8.956387519836426 -1.5877677202224731 -0.4254410862922668
-9.192754745483398 -1.5581092834472656 -0.4174941182136535
-9.238319396972656 -1.551306128501892 -0.4156712293624878
-9.574164390563965 -1.533144474029541 -0.41080483794212336
-9.817155838012695 -1.4793270826339722 -0.39638450741767883
-9.785609245300293 -1.418782353401184 -0.3801615834236145
-9.891519546508789 -1.3862645626068115 -0.37144845724105835
-10.003070831298828 -1.3481831550598145 -0.3612445890903473
-10.189597129821777 -1.3199455738067627 -0.3536783754825592
-10.414449691772461 -1.2891677618026733 -0.34543147683143616
-10.741057395935059 -1.2491260766983032 -0.33470234274864197
-11.050021171569824 -1.2070962190628052 -0.32344043254852295
-11.391702651977539 -1.1618702411651611 -0.3113221824169159
-11.53104305267334 -1.1079597473144531 -0.2968769073486328
-12.097569465637207 -1.0783860683441162 -0.28895267844200134
-12.173954010009766 -1.0128015279769897 -0.27137935161590576
-12.230864524841309 -0.9697914719581604 -0.25985485315322876
-12.260967254638672 -0.9344732165336608 -0.2503913342952728
-12.23850154876709 -0.90164315700531 -0.24159455299377441
-12.165239334106445 -0.8839254975318908 -0.23684711754322055
-12.041749954223633 -0.870133101940155 -0.23315146565437317
-11.893888473510742 -0.8489744663238527 -0.22748202085494995
-11.513877868652344 -0.8293415904045105 -0.22222140431404117
-11.214137077331543 -0.806434690952301 -0.21608352661132815
-10.554790496826172 -0.7830512523651123 -0.20981796085834503
-9.538398742675781 -0.8881232142448425 -0.23797190189361575
-8.198022842407227 -0.9549281001091005 -0.2558722198009491
-7.081198215484619 -1.130130648612976 -0.30281758308410645
-5.939247131347656 -1.1931177377700806 -0.3196949064731598
-5.076450824737549 -1.232710599899292 -0.330303817987442
-4.090600967407227 -1.276434063911438 -0.3420194983482361
-3.1362600326538086 -1.3019546270370483 -0.34885767102241516
-1.7082072496414185 -1.3586885929107666 -0.3640595078468323