# vtk DataFile Version 4.0
 
ASCII
DATASET UNSTRUCTURED_GRID
POINTS 51 float
0.0029719590675085783 -0.007321756798774003 -0.002002058085054159
0.002608868759125471 -0.009976522997021675 -0.005174558609724045
0.0023370522540062666 -0.012871101498603819 -0.008046647533774376
0.0019680906552821398 -0.01581895723938942 -0.010774844326078892
0.0014949451433494687 -0.018803086131811142 -0.013373420573771
0.001041901996359229 -0.021663906052708626 -0.015976278111338615
0.0007715190295130014 -0.024137046188116074 -0.018805252388119698
0.0007508308626711369 -0.02639545500278473 -0.02171522192656994
0.0009129723184742035 -0.02870816364884377 -0.024480441585183144
0.0011547972681000829 -0.030875414609909054 -0.02726852893829346
0.0014014894841238856 -0.03297657147049904 -0.030012892559170723
0.0016095859464257958 -0.035115085542201996 -0.03262672200798988
0.0017607304034754632 -0.037229493260383606 -0.03516159579157829
0.0018556131981313229 -0.03925316035747528 -0.03767342120409012
0.0019071486312896013 -0.04119197279214859 -0.0401572622358799
0.0019331572111696005 -0.043088845908641815 -0.0425771102309227
0.0019505200907588003 -0.04498334601521492 -0.04489976540207863
0.0019713775254786015 -0.04688423499464989 -0.047117870301008224
0.002001940505579114 -0.04876433312892914 -0.04925423488020897
0.0020439913496375084 -0.0505845881998539 -0.051341630518436425
0.0020965919829905033 -0.052319277077913284 -0.05340163782238961
0.002157271606847644 -0.05396763607859611 -0.05543490126729012
0.0022228893358260393 -0.055545158684253686 -0.057428412139415734
0.0022902570199221373 -0.05707000195980073 -0.059366945177316666
0.0023565629962831736 -0.058555770665407174 -0.06123907864093781
0.0024196337908506393 -0.06001042574644089 -0.06303813308477402
0.002478071954101324 -0.06143665686249734 -0.06476185470819473
0.002531298203393817 -0.06283249706029892 -0.06641189008951187
0.0025795181281864643 -0.06419210135936737 -0.06799314171075821
0.0026236188132315874 -0.06550674885511398 -0.06951294094324112
0.002664896659553051 -0.06676680594682693 -0.07097934931516647
0.002704667393118143 -0.06796445697546005 -0.07239894568920135
0.0027439913246780634 -0.06909538805484772 -0.07377532869577408
0.0027835292275995016 -0.07015945762395859 -0.07510863989591599
0.0028234992641955614 -0.07116053253412247 -0.07639562338590622
0.0028637030627578497 -0.07210582494735718 -0.07763022929430008
0.0029035976622253656 -0.07300495356321335 -0.0788043811917305
0.0029423937667161226 -0.07386810332536697 -0.07990953326225281
0.0029791651759296656 -0.07470176368951797 -0.08094025403261185
0.0030129586812108755 -0.07550512999296188 -0.08189719915390015
0.003042890690267086 -0.07626979798078537 -0.08278744667768478
0.003068230813369155 -0.07698153704404831 -0.08362290263175964
0.0030884635634720325 -0.07762280851602554 -0.08441831171512604
0.0031033288687467575 -0.07817193120718002 -0.08519185334444046
0.003112840000540018 -0.0786021426320076 -0.08596599102020264
0.0031172798480838537 -0.07888612151145935 -0.0867636427283287
0.0031171797309070826 -0.07900326699018478 -0.08760210126638412
0.0031132809817790985 -0.07894634455442429 -0.08848743140697479
0.0031064841896295547 -0.07872575521469116 -0.08941091597080231
0.0030977895949035883 -0.07837041467428207 -0.09034828096628189
0.003088234690949321 -0.07792545109987259 -0.09126165509223938

CELLS 50 150
2 0 1
2 1 2
2 2 3
2 3 4
2 4 5
2 5 6
2 6 7
2 7 8
2 8 9
2 9 10
2 10 11
2 11 12
2 12 13
2 13 14
2 14 15
2 15 16
2 16 17
2 17 18
2 18 19
2 19 20
2 20 21
2 21 22
2 22 23
2 23 24
2 24 25
2 25 26
2 26 27
2 27 28
2 28 29
2 29 30
2 30 31
2 31 32
2 32 33
2 33 34
2 34 35
2 35 36
2 36 37
2 37 38
2 38 39
2 39 40
2 40 41
2 41 42
2 42 43
2 43 44
2 44 45
2 45 46
2 46 47
2 47 48
2 48 49
2 49 50

CELL_TYPES 50
4
4
4
4
4
4
4
4
4
4
4
4
4
4
4
4
4
4
4
4
4
4
4
4
4
4
4
4
4
4
4
4
4
4
4
4
4
4
4
4
4
4
4
4
4
4
4
4
4
4

POINT_DATA 51

SCALARS zone float
LOOKUP_TABLE default
1.0
1.0
1.0
1.0
1.0
1.0
1.0
1.0
1.0
1.0
1.0
1.0
1.0
1.0
1.0
1.0
1.0
1.0
1.0
1.0
1.0
1.0
1.0
1.0
1.0
1.0
1.0
1.0
1.0
1.0
1.0
1.0
1.0
1.0
1.0
1.0
1.0
1.0
1.0
1.0
1.0
1.0
1.0
1.0
1.0
1.0
1.0
1.0
1.0
1.0
1.0

VECTORS normals float
-0.00018154516874346882 -0.0013273830991238356 -0.0015862502623349428
-0.00031745340675115585 -0.0027746723499149084 -0.0030222944915294647
-0.0003203890810254961 -0.0029212175868451595 -0.0028001428581774235
-0.00042105361353605986 -0.002965992083773017 -0.002663386519998312
-0.0004630943294614554 -0.002922473940998316 -0.002600716892629862
-0.00036171305691823363 -0.0026669802609831095 -0.002715915907174349
-0.0001455355522921309 -0.0023657744750380516 -0.002869471674785018
7.072663720464334e-5 -0.0022855589631944895 -0.0028375948313623667
0.00020198317361064258 -0.0022399802692234516 -0.00277665420435369
0.00024425858282484114 -0.0021342034451663494 -0.0027662257198244333
0.0002273943391628563 -0.0021198356989771128 -0.0026790958363562822
0.00017962048877961934 -0.0021264611277729273 -0.0025743506848812103
0.0001230136549565941 -0.002069035777822137 -0.002523350529372692
7.320909935515374e-5 -0.0019812395330518484 -0.002497834386304021
3.8772002881160006e-5 -0.0019178434740751984 -0.0024518442805856466
2.1685751562472433e-5 -0.0018956869607791307 -0.0023712501861155033
1.9110158973489888e-5 -0.0018976951250806453 -0.002270379336550832
2.5710261979838833e-5 -0.0018904942553490402 -0.002177235670387745
3.630685023381375e-5 -0.0018501755548641083 -0.002111881272867322
4.732568413601257e-5 -0.0017774713924154641 -0.0020737017039209604
5.6640183174749836e-5 -0.0016915238229557872 -0.002046634443104267
6.314866186585277e-5 -0.0016129415016621351 -0.002013387158513069
6.649269198533148e-5 -0.0015511844540014863 -0.0019660217221826315
6.683685205643997e-5 -0.0015053049428388476 -0.001905333367176354
6.468839274020866e-5 -0.0014702107291668653 -0.0018355951178818941
6.0754482547054074e-5 -0.0014404428657144308 -0.0017613875679671764
5.583223173744046e-5 -0.0014110351912677288 -0.001686877803876996
5.072306885267608e-5 -0.0013777234125882387 -0.0016156439669430254
4.616025398718193e-5 -0.001337125664576888 -0.0015505237970501184
4.268924021744169e-5 -0.001287350314669311 -0.0014931043842807412
4.052436997881159e-5 -0.0012288534780964255 -0.0014430033043026924
3.9547361666336656e-5 -0.0011642933823168278 -0.0013979899231344461
3.943082629120909e-5 -0.001097503467462957 -0.0013548475690186024
3.97539661207702e-5 -0.0010325700277462602 -0.0013101474614813924
4.0087012166623026e-5 -0.0009731826721690594 -0.0012607935350388288
4.004923903266899e-5 -0.0009222113876603544 -0.0012043777387589216
3.934526102966629e-5 -0.0008811398292891682 -0.0011396551271900535
3.778377140406519e-5 -0.0008484055288136005 -0.0010679367696866393
3.528250090312213e-5 -0.000818513974081725 -0.0009938329458236694
3.186270623700693e-5 -0.0007840155158191919 -0.0009235948091372846
2.7636049708235078e-5 -0.0007382021867670119 -0.0008628509822301567
2.2786460249335505e-5 -0.0006765058496966958 -0.0008154346141964196
1.7549085896462202e-5 -0.000595197023358196 -0.0007844750070944428
1.21881839731941e-5 -0.0004896679893136024 -0.000773838663008064
6.97543964633951e-6 -0.00035709611256606877 -0.0007858938770368695
2.169919071093318e-6 -0.00020056188805028796 -0.0008180559379979969
-1.999401547436719e-6 -3.011197259183973e-5 -0.0008618946303613485
-5.347871592675801e-6 0.00013875632430426776 -0.0009044061880558729
-7.745714356133249e-6 0.00028796750120818615 -0.0009304234408773482
-9.124661119130906e-6 0.0004001515335403382 -0.0009253713069483638
-4.777432877745014e-6 0.0002224811614723876 -0.0004566895659081638

CELL_DATA 50

VECTORS liftinglineloading               float
0.05173280835151673 0.05461762845516205 -0.038243673741817474
-0.00721219088882208 0.010400040075182915 -0.007282186299562454
0.05815849453210831 0.05481862649321556 -0.038384415209293365
0.058546125888824456 0.09839702397584915 -0.06889833509922028
-0.2811414301395416 0.21374672651290894 -0.14966706931591034
-1.0810548067092896 0.41215574741363525 -0.2885945439338684
-2.127983331680298 0.658939003944397 -0.4613940417766571
-3.268936395645141 0.8956943154335021 -0.6271718740463257
-4.672515392303467 1.1578556299209595 -0.8107392191886902
-5.921902179718018 1.364386796951294 -0.9553539752960205
-6.9048309326171875 1.4953529834747314 -1.0470573902130127
-7.719442367553711 1.5896269083023071 -1.113068699836731
-8.262680053710938 1.6260843276977541 -1.138596534729004
-7.772397994995118 1.5098836421966553 -1.0572319030761719
-7.9505205154418945 1.4513646364212036 -1.0162564516067505
-8.250195503234863 1.4176363945007324 -0.9926396608352661
-8.364295959472656 1.3625162839889526 -0.9540441632270813
-8.685832977294922 1.3325246572494507 -0.9330438375473022
-8.947333335876465 1.3096920251846313 -0.9170562624931334
-9.054128646850586 1.3050243854522705 -0.9137879610061644
-9.433326721191406 1.2927827835083008 -0.9052162170410156
-9.729215621948242 1.248948574066162 -0.8745231628417968
-9.763236045837402 1.199523687362671 -0.8399155139923096
-9.938018798828125 1.1730825901031494 -0.8214012384414672
-10.112606048583984 1.1406022310256958 -0.7986582517623901
-10.356226921081543 1.1156132221221924 -0.7811607718467712
-10.67580509185791 1.0876946449279785 -0.7616119384765625
-11.106910705566406 1.0520122051239014 -0.7366268634796143
-11.48379135131836 1.0138399600982666 -0.7098983526229858
-11.876516342163086 0.9720412492752076 -0.680630624294281
-12.016914367675781 0.9234554767608644 -0.6466104984283447
-12.54842472076416 0.8949711918830872 -0.6266655921936035
-12.59118366241455 0.8370634913444519 -0.5861181616783142
-12.616959571838379 0.8032965660095215 -0.5624743103981018
-12.61522388458252 0.7763805985450745 -0.5436275601387024
-12.564324378967285 0.7516267895698547 -0.5262947082519531
-12.464655876159668 0.7394546270370483 -0.5177717208862305
-12.317712783813477 0.7298611998558044 -0.5110543370246887
-12.131417274475098 0.7131816148757935 -0.4993751347064972
-11.736990928649902 0.6979888677597046 -0.4887370765209198
-11.429841995239258 0.6795843839645386 -0.4758501350879669
-10.759374618530273 0.6624513268470764 -0.46385341882705694
-9.7272367477417 0.7528941631317139 -0.5271821618080139
-8.385573387145996 0.8112336993217468 -0.5680319666862488
-7.267817497253417 0.9628444314002991 -0.6741909384727478
-6.129388809204102 1.0181536674499512 -0.7129188776016235
-5.274907112121582 1.052842140197754 -0.7372080087661743
-4.297256946563721 1.091181993484497 -0.7640538811683655
-3.347284555435181 1.1144181489944458 -0.7803239822387695
-1.8715597391128538 1.1641329526901245 -0.8151346445083618