# vtk DataFile Version 4.0
 
ASCII
DATASET UNSTRUCTURED_GRID
POINTS 51 float
0.0029719590675085783 -0.006862869020551443 -0.0032430519349873066
0.002608868759125471 -0.008926404640078545 -0.006828350480645896
0.0023370522540062666 -0.011278274469077587 -0.010159444063901901
0.0019680906552821398 -0.01370760053396225 -0.01335808355361223
0.0014949451433494687 -0.016195153817534447 -0.016435369849205017
0.001041901996359229 -0.018560530617833138 -0.019495459273457527
0.0007715190295130014 -0.020504852756857872 -0.02271091192960739
0.0007508308626711369 -0.022223640233278275 -0.02596884034574032
0.0009129723184742035 -0.02402103878557682 -0.029093649238348007
0.0011547972681000829 -0.02567121759057045 -0.03221571817994118
0.0014014894841238856 -0.02726389840245247 -0.035283252596855164
0.0016095859464257958 -0.02891603857278824 -0.03822872042655945
0.0017607304034754632 -0.030558146536350247 -0.041092243045568466
0.0018556131981313229 -0.032114893198013306 -0.04391731694340706
0.0019071486312896013 -0.033592939376831055 -0.046700093895196915
0.0019331572111696005 -0.03504079207777977 -0.0494125671684742
0.0019505200907588003 -0.03650318458676338 -0.052028913050889976
0.0019713775254786015 -0.0379900261759758 -0.0545434057712555
0.002001940505579114 -0.03947058692574501 -0.056973788887262344
0.0020439913496375084 -0.040900710970163345 -0.059345558285713196
0.0020965919829905033 -0.042251333594322205 -0.06167549639940261
0.002157271606847644 -0.04352157562971115 -0.06396409869194031
0.0022228893358260393 -0.04472896456718445 -0.06620126217603683
0.0022902570199221373 -0.045894019305706024 -0.0683751255273819
0.0023565629962831736 -0.04703212156891823 -0.07047682255506516
0.0024196337908506393 -0.04815227538347244 -0.07250114530324936
0.002478071954101324 -0.049257516860961914 -0.07444634288549423
0.002531298203393817 -0.05034562572836876 -0.07631368935108185
0.0025795181281864643 -0.05140999332070351 -0.07810701429843903
0.0026236188132315874 -0.052440755069255836 -0.07983200997114182
0.002664896659553051 -0.05342702940106392 -0.08149494975805283
0.002704667393118143 -0.05435997620224953 -0.08310094475746155
0.0027439913246780634 -0.055234722793102264 -0.08465280383825302
0.0027835292275995016 -0.0560511015355587 -0.0861506313085556
0.0028234992641955614 -0.05681348219513893 -0.08759190142154694
0.0028637030627578497 -0.05753002688288689 -0.08897189795970917
0.0029035976622253656 -0.05821160599589348 -0.09028434008359909
0.0029423937667161226 -0.05886973813176155 -0.09152259677648544
0.0029791651759296656 -0.05951174721121787 -0.09268241375684738
0.0030129586812108755 -0.060136739164590836 -0.09376432746648788
0.003042890690267086 -0.060735195875167854 -0.09477382898330688
0.003068230813369155 -0.06129105016589164 -0.09572018682956696
0.0030884635634720325 -0.06178445369005203 -0.09661486744880676
0.0031033288687467575 -0.062190912663936615 -0.09747201204299927
0.003112840000540018 -0.06248016282916069 -0.09830909222364426
0.0031172798480838537 -0.06262131780385971 -0.09914393723011017
0.0031171797309070826 -0.0625910833477974 -0.09999000281095505
0.0031132809817790985 -0.06238129362463951 -0.10085199773311615
0.0031064841896295547 -0.062003690749406815 -0.10172314941883087
0.0030977895949035883 -0.0614909753203392 -0.1025845631957054
0.003088234690949321 -0.06089416891336441 -0.10340680181980133

CELLS 50 150
2 0 1
2 1 2
2 2 3
2 3 4
2 4 5
2 5 6
2 6 7
2 7 8
2 8 9
2 9 10
2 10 11
2 11 12
2 12 13
2 13 14
2 14 15
2 15 16
2 16 17
2 17 18
2 18 19
2 19 20
2 20 21
2 21 22
2 22 23
2 23 24
2 24 25
2 25 26
2 26 27
2 27 28
2 28 29
2 29 30
2 30 31
2 31 32
2 32 33
2 33 34
2 34 35
2 35 36
2 36 37
2 37 38
2 38 39
2 39 40
2 40 41
2 41 42
2 42 43
2 43 44
2 44 45
2 45 46
2 46 47
2 47 48
2 48 49
2 49 50

CELL_TYPES 50
4
4
4
4
4
4
4
4
4
4
4
4
4
4
4
4
4
4
4
4
4
4
4
4
4
4
4
4
4
4
4
4
4
4
4
4
4
4
4
4
4
4
4
4
4
4
4
4
4
4

POINT_DATA 51

SCALARS zone float
LOOKUP_TABLE default
1.0
1.0
1.0
1.0
1.0
1.0
1.0
1.0
1.0
1.0
1.0
1.0
1.0
1.0
1.0
1.0
1.0
1.0
1.0
1.0
1.0
1.0
1.0
1.0
1.0
1.0
1.0
1.0
1.0
1.0
1.0
1.0
1.0
1.0
1.0
1.0
1.0
1.0
1.0
1.0
1.0
1.0
1.0
1.0
1.0
1.0
1.0
1.0
1.0
1.0
1.0

VECTORS normals float
-0.00018154516874346882 -0.001031767693348229 -0.0017926492728292942
-0.00031745340675115585 -0.002207702724263072 -0.0034581958316266537
-0.0003203890810254961 -0.0023905979469418526 -0.0032648663036525245
-0.00042105361353605986 -0.0024584399070590734 -0.003137962892651558
-0.0004630943294614554 -0.0024264652747660875 -0.0030686885584145784
-0.00036171305691823363 -0.0021548490040004253 -0.003137771273031831
-0.0001455355522921309 -0.001831554574891925 -0.0032366903033107515
7.072663720464334e-5 -0.0017580930143594742 -0.0031913684215396647
0.00020198317361064258 -0.0017237889114767315 -0.0031234389171004295
0.00024425858282484114 -0.0016214300412684681 -0.0030948009807616472
0.0002273943391628563 -0.0016224106075242162 -0.003006499959155917
0.00017962048877961934 -0.0016471240669488907 -0.0029044966213405132
0.0001230136549565941 -0.001599427196197212 -0.0028442994225770235
7.320909935515374e-5 -0.0015173957217484713 -0.0028039254248142242
3.8772002881160006e-5 -0.0014629487413913012 -0.002747625345364213
2.1685751562472433e-5 -0.0014551238855347037 -0.002664408180862665
1.9110158973489888e-5 -0.001474617631174624 -0.0025654183700680733
2.5710261979838833e-5 -0.0014837003545835614 -0.0024724395480006933
3.630685023381375e-5 -0.0014553428627550602 -0.0024010767228901386
4.732568413601257e-5 -0.0013903731014579535 -0.0023508521262556314
5.6640183174749836e-5 -0.0013104313984513283 -0.002309271600097418
6.314866186585277e-5 -0.0012388163013383746 -0.002262883586809039
6.649269198533148e-5 -0.0011862224200740457 -0.0022055136505514383
6.683685205643997e-5 -0.0011515782680362463 -0.0021377806551754475
6.468839274020866e-5 -0.0011291272239759564 -0.002063007792457938
6.0754482547054074e-5 -0.0011126975296065211 -0.001984758535400033
5.583223173744046e-5 -0.0010966750560328364 -0.0019062740029767158
5.072306885267608e-5 -0.001076239044778049 -0.0018303378019481897
4.616025398718193e-5 -0.0010475660674273968 -0.001759157283231616
4.268924021744169e-5 -0.0010085178073495626 -0.0016939667984843254
4.052436997881159e-5 -0.0009596095187589526 -0.001634469022974372
3.9547361666336656e-5 -0.0009038466960191727 -0.001578928786329925
3.943082629120909e-5 -0.000845563132315874 -0.0015248438576236367
3.97539661207702e-5 -0.0007893782458268106 -0.0014695472782477736
4.0087012166623026e-5 -0.0007394633139483631 -0.0014106306480243802
4.004923903266899e-5 -0.00069906294811517 -0.001346220844425261
3.934526102966629e-5 -0.0006698542856611311 -0.0012753495248034596
3.778377140406519e-5 -0.0006500710733234882 -0.00119903648737818
3.528250090312213e-5 -0.0006335016223601997 -0.001120867789722979
3.186270623700693e-5 -0.0006117239827290177 -0.0010457062162458897
2.7636049708235078e-5 -0.000577154743950814 -0.0009779297979548573
2.2786460249335505e-5 -0.000524629489518702 -0.0009205203386954963
1.7549085896462202e-5 -0.0004499320057220757 -0.0008759119664318861
1.21881839731941e-5 -0.000347853172570467 -0.0008471122710034251
6.97543964633951e-6 -0.00021520198788493874 -0.0008359634666703641
2.169919071093318e-6 -5.5460972362197936e-5 -0.0008404550608247519
-1.999401547436719e-6 0.00012001192953903227 -0.0008540293783880769
-5.347871592675801e-6 0.0002936967939604074 -0.0008665714412927628
-7.745714356133249e-6 0.0004451589775271714 -0.0008662831969559193
-9.124661119130906e-6 0.0005547613836824894 -0.0008418272482231259
-4.777432877745014e-6 0.00029840448405593634 -0.00041111797327175736

CELL_DATA 50

VECTORS liftinglineloading               float
0.053589966148138046 0.061563838273286826 -0.02870769053697586
-0.0016298755072057245 0.016642658039927483 -0.007760599255561829
0.05585996061563492 0.058905549347400665 -0.027468109503388405
0.0658784806728363 0.10715938359498976 -0.04996924102306366
-0.2692421078681946 0.233434185385704 -0.10885214805603029
-1.075607180595398 0.455213874578476 -0.21226970851421356
-2.1299664974212646 0.7303833365440369 -0.34058335423469543
-3.2784085273742676 0.9934360384941101 -0.46324682235717773
-4.686734676361084 1.284340739250183 -0.5988978743553162
-5.898723602294922 1.510308027267456 -0.704268217086792
-6.918890953063965 1.658397912979126 -0.773323655128479
-7.7424278259277335 1.7653857469558716 -0.8232128620147705
-8.303632736206055 1.8071235418319702 -0.8426755666732788
-8.024816513061523 1.692912459373474 -0.78941810131073
-8.121685981750488 1.6233122348785398 -0.7569628953933716
-8.341062545776367 1.5787882804870605 -0.7362010478973389
-8.386348724365234 1.5122003555297852 -0.7051506042480469
-8.663601875305176 1.477042555809021 -0.6887562274932861
-8.893412590026855 1.4509319067001343 -0.6765806674957275
-9.01381778717041 1.446324348449707 -0.674432098865509
-9.412681579589844 1.4344500303268433 -0.6688950657844543
-9.735457420349121 1.3867101669311523 -0.6466335654258728
-9.801162719726562 1.332739233970642 -0.6214665174484253
-9.998119354248047 1.3035101890563965 -0.6078367829322815
-10.212691307067871 1.2672555446624756 -0.5909309387207031
-10.485868453979492 1.2385954856872559 -0.5775665640830994
-10.831229209899902 1.2062349319458008 -0.5624765753746033
-11.1997652053833 1.1667815446853638 -0.5440791845321655
-11.581459045410156 1.1236902475357056 -0.5239853858947754
-11.974867820739746 1.0765661001205444 -0.5020110011100769
-12.108628273010254 1.0221484899520874 -0.4766356647014618
-12.6305513381958 0.9900267720222473 -0.46165704727172846
-12.64339828491211 0.9265903830528259 -0.43207618594169617
-12.6585111618042 0.889524519443512 -0.4147920906543731
-12.646330833435059 0.8600399494171141 -0.40104320645332336
-12.5853853225708 0.832948088645935 -0.3884100914001465
-12.47386360168457 0.8197355270385743 -0.3822489380836487
-12.31640911102295 0.8092577457427979 -0.37736308574676514
-12.136930465698242 0.7903760075569153 -0.3685583770275116
-11.732361793518066 0.7736539840698242 -0.36076077818870544
-11.415780067443848 0.7533208727836609 -0.35127928853034973
-10.737363815307617 0.7340078949928284 -0.3422735035419464
-9.699624061584473 0.8339263200759889 -0.38886621594429016
-8.343043327331543 0.8980678915977478 -0.4187759459018707
-7.220052242279054 1.0650005340576172 -0.4966178834438324
-6.075753688812256 1.1255511045455933 -0.5248531103134155
-5.213988304138184 1.1634862422943115 -0.542542576789856
-4.243768692016602 1.206023931503296 -0.5623781681060791
-3.3590087890625 1.23383367061615 -0.575346052646637
-1.8803918361663818 1.2888946533203125 -0.6010214686393738