# vtk DataFile Version 4.0
 
ASCII
DATASET UNSTRUCTURED_GRID
POINTS 51 float
0.0029719590675085783 -0.0012798273237422109 -0.007481871638447046
0.002608868759125471 0.0004734820104204118 -0.011228663846850395
0.0023370522540062666 0.0018531766254454851 -0.015065839514136314
0.0019680906552821398 0.003079944523051381 -0.018890490755438805
0.0014949451433494687 0.004173907916992903 -0.02269323542714119
0.001041901996359229 0.005323862656950951 -0.02638603374361992
0.0007715190295130014 0.006842589937150478 -0.02982303500175476
0.0007508308626711369 0.008525473065674305 -0.03309965506196022
0.0009129723184742035 0.01005422044545412 -0.03636431321501732
0.0011547972681000829 0.011665166355669498 -0.039506807923316956
0.0014014894841238856 0.01326441764831543 -0.042570918798446655
0.0016095859464257958 0.014729574322700499 -0.04561372473835945
0.0017607304034754632 0.01613336242735386 -0.048601310700178146
0.0018556131981313229 0.017554614692926407 -0.051496919244527824
0.0019071486312896013 0.018986361101269722 -0.054303798824548714
0.0019331572111696005 0.020377833396196365 -0.05704561993479729
0.0019505200907588003 0.021682221442461014 -0.0597442165017128
0.0019713775254786015 0.022889157757163048 -0.06240442022681236
0.002001940505579114 0.02403079904615879 -0.06501123309135437
0.0020439913496375084 0.025153350085020065 -0.06754311919212341
0.0020965919829905033 0.02628723904490471 -0.06998587399721146
0.002157271606847644 0.027433374896645546 -0.07233908772468567
0.0022228893358260393 0.02857341803610325 -0.07461130619049072
0.0022902570199221373 0.029685897752642635 -0.07681254297494888
0.0023565629962831736 0.03075471706688404 -0.07895030081272125
0.0024196337908506393 0.03177044913172722 -0.08102898299694061
0.002478071954101324 0.032729919999837875 -0.08305006474256516
0.002531298203393817 0.0336354523897171 -0.08501245826482773
0.0025795181281864643 0.034493960440158844 -0.08691294491291046
0.0026236188132315874 0.03531577065587044 -0.08874671161174774
0.002664896659553051 0.03611226752400398 -0.09050844609737396
0.002704667393118143 0.03689270839095116 -0.09219382703304291
0.0027439913246780634 0.03766218200325966 -0.09380049258470535
0.0027835292275995016 0.03842087462544441 -0.09532834589481354
0.0028234992641955614 0.039164211601018906 -0.09677953273057938
0.0028637030627578497 0.03988363966345787 -0.09815802425146103
0.0029035976622253656 0.040567796677351 -0.0994691252708435
0.0029423937667161226 0.04120462387800217 -0.10071846842765808
0.0029791651759296656 0.04178645461797714 -0.10190962255001068
0.0030129586812108755 0.04231422394514084 -0.10304214060306549
0.003042890690267086 0.04279789701104164 -0.10411139577627182
0.003068230813369155 0.04325428605079651 -0.10510953515768051
0.0030884635634720325 0.043704159557819366 -0.10602687299251555
0.0031033288687467575 0.04417315497994423 -0.10685146600008011
0.003112840000540018 0.04469294473528862 -0.10756853222846985
0.0031172798480838537 0.045295849442481995 -0.1081630066037178
0.0031171797309070826 0.04600624367594719 -0.10862352699041367
0.0031132809817790985 0.04683268070220947 -0.10894609242677689
0.0031064841896295547 0.04776286706328392 -0.10913644731044769
0.0030977895949035883 0.04876258224248886 -0.1092105507850647
0.003088234690949321 0.04977843165397644 -0.10919328778982162

CELLS 50 150
2 0 1
2 1 2
2 2 3
2 3 4
2 4 5
2 5 6
2 6 7
2 7 8
2 8 9
2 9 10
2 10 11
2 11 12
2 12 13
2 13 14
2 14 15
2 15 16
2 16 17
2 17 18
2 18 19
2 19 20
2 20 21
2 21 22
2 22 23
2 23 24
2 24 25
2 25 26
2 26 27
2 27 28
2 28 29
2 29 30
2 30 31
2 31 32
2 32 33
2 33 34
2 34 35
2 35 36
2 36 37
2 37 38
2 38 39
2 39 40
2 40 41
2 41 42
2 42 43
2 43 44
2 44 45
2 45 46
2 46 47
2 47 48
2 48 49
2 49 50

CELL_TYPES 50
4
4
4
4
4
4
4
4
4
4
4
4
4
4
4
4
4
4
4
4
4
4
4
4
4
4
4
4
4
4
4
4
4
4
4
4
4
4
4
4
4
4
4
4
4
4
4
4
4
4

POINT_DATA 51

SCALARS zone float
LOOKUP_TABLE default
1.0
1.0
1.0
1.0
1.0
1.0
1.0
1.0
1.0
1.0
1.0
1.0
1.0
1.0
1.0
1.0
1.0
1.0
1.0
1.0
1.0
1.0
1.0
1.0
1.0
1.0
1.0
1.0
1.0
1.0
1.0
1.0
1.0
1.0
1.0
1.0
1.0
1.0
1.0
1.0
1.0
1.0
1.0
1.0
1.0
1.0
1.0
1.0
1.0
1.0
1.0

VECTORS normals float
-0.00018154516874346882 0.0008766546961851418 -0.0018733959877863526
-0.00031745340675115585 0.001566501916386187 -0.003791983937844634
-0.0003203890810254961 0.001303231343626976 -0.0038309136871248484
-0.00042105361353605986 0.0011603656457737088 -0.00381369749084115
-0.0004630943294614554 0.0011219590669497848 -0.0037477714940905567
-0.00036171305691823363 0.0013343411264941096 -0.0035649004857987165
-0.0001455355522921309 0.0016008049715310337 -0.0033568111248314385
7.072663720464334e-5 0.0016058152541518214 -0.0032706393394619226
0.00020198317361064258 0.0015698467614129186 -0.003203576197847724
0.00024425858282484114 0.0016050984850153327 -0.0031033025588840246
0.0002273943391628563 0.001532203983515501 -0.003053458407521248
0.00017962048877961934 0.001434472855180502 -0.003015195718035102
0.0001230136549565941 0.0014125198358669877 -0.0029415972530841827
7.320909935515374e-5 0.0014264987548813224 -0.0028512433636933565
3.8772002881160006e-5 0.0014116100501269102 -0.0027743505779653788
2.1685751562472433e-5 0.0013479305198416114 -0.00272020953707397
1.9110158973489888e-5 0.001255661714822054 -0.0026793996803462505
2.5710261979838833e-5 0.001174288336187601 -0.00263350922614336
3.630685023381375e-5 0.0011320965131744742 -0.0025693480856716633
4.732568413601257e-5 0.001128220115788281 -0.002487320452928543
5.6640183174749836e-5 0.001140011940151453 -0.002397986361756921
6.314866186585277e-5 0.0011430898448452353 -0.002312715630978346
6.649269198533148e-5 0.00112626189365983 -0.0022367271594703197
6.683685205643997e-5 0.0010906491661444306 -0.0021694982424378395
6.468839274020866e-5 0.0010422762716189027 -0.0021082195453345776
6.0754482547054074e-5 0.0009876018157228827 -0.0020498791709542274
5.583223173744046e-5 0.0009325012797489762 -0.0019917376339435577
5.072306885267608e-5 0.0008820196380838752 -0.001931442064233124
4.616025398718193e-5 0.0008401580853387713 -0.0018671270227059722
4.268924021744169e-5 0.0008091543568298221 -0.001797748846001923
4.052436997881159e-5 0.0007884692749939859 -0.0017235589912161233
3.9547361666336656e-5 0.0007749575306661427 -0.00164602417498827
3.943082629120909e-5 0.0007640838739462197 -0.0015672593144699931
3.97539661207702e-5 0.0007510138675570488 -0.0014895184431225061
4.0087012166623026e-5 0.0007313822279684246 -0.0014148374320939183
4.004923903266899e-5 0.0007017935859039426 -0.0013447994133457541
3.934526102966629e-5 0.0006604925729334354 -0.0012802229030057788
3.778377140406519e-5 0.0006093276897445321 -0.0012202460784465075
3.528250090312213e-5 0.0005547995679080486 -0.0011618374846875668
3.186270623700693e-5 0.0005057218950241804 -0.0011008874280378222
2.7636049708235078e-5 0.00047003081999719143 -0.0010336949490010738
2.2786460249335505e-5 0.0004531310114543885 -0.0009577400633133948
1.7549085896462202e-5 0.0004594346683006733 -0.0008709651883691549
1.21881839731941e-5 0.0004943933454342186 -0.0007708282792009413
6.97543964633951e-6 0.00056134641636163 -0.000655772106256336
2.169919071093318e-6 0.0006566493539139628 -0.0005274961586110294
-1.999401547436719e-6 0.0007684159209020436 -0.0003915431152563542
-5.347871592675801e-6 0.0008783113444224 -0.00025646263384260237
-7.745714356133249e-6 0.0009649503626860677 -0.00013222676352597773
-9.124661119130906e-6 0.0010077825281769037 -2.8418347937986255e-5
-4.777432877745014e-6 0.0005079259281046689 8.631060154584702e-6

CELL_DATA 50

VECTORS liftinglineloading               float
0.03587034344673157 0.045463286340236664 0.02624824084341526
-0.01039501465857029 0.008303424343466759 0.004793984349817038
0.053487475961446755 0.07201075553894043 0.04157542809844017
-0.03413902223110199 0.12763798236846924 0.07369182258844376
-0.49684855341911316 0.2788130044937134 0.16097275912761688
-1.290582537651062 0.4779379963874817 0.27593764662742615
-2.3710200786590576 0.7186543345451355 0.4149152636528015
-3.534915447235107 0.966571033000946 0.5580500364303589
-4.9488911628723145 1.239316701889038 0.7155197858810425
-6.2352728843688965 1.4598487615585327 0.8428440690040588
-7.2772979736328125 1.6113965511322021 0.9303402304649354
-8.05927562713623 1.7035826444625854 0.9835638999938965
-8.5427827835083 1.7352254390716553 1.0018328428268433
-8.27316951751709 1.6311944723129272 0.9417705535888672
-8.37412166595459 1.5682578086853027 0.9054340720176696
-8.571112632751465 1.5233460664749146 0.8795042037963867
-8.6199369430542 1.4571928977966309 0.841310679912567
-8.866177558898926 1.4174185991287231 0.8183470368385314
-9.090254783630371 1.3908075094223022 0.8029831051826477
-9.141531944274902 1.3843494653701782 0.7992545366287231
-9.477822303771973 1.3690143823623657 0.7904008030891418
-9.72525405883789 1.3210781812667847 0.7627248764038086
-9.71242904663086 1.26804518699646 0.7321062684059143
-9.811446189880371 1.2389733791351318 0.7153216004371643
-9.925985336303711 1.2055463790893555 0.6960225701332092
-10.104286193847656 1.1808102130889893 0.6817410588264465
-10.387784004211426 1.1534357070922852 0.6659364700317383
-10.641633033752441 1.118361473083496 0.6456863284111023
-10.935925483703613 1.0814769268035889 0.6243909597396851
-11.26400089263916 1.0419785976409912 0.601586639881134
-11.398587226867676 0.9947739839553833 0.5743330121040344
-11.972289085388184 0.969456672668457 0.5597161054611206
-12.033243179321289 0.9131128787994385 0.5271859765052795
-12.091558456420898 0.8745141625404358 0.5049009919166565
-12.121829986572266 0.842656910419464 0.4865081906318665
-12.097308158874512 0.8128938674926758 0.46932449936866755
-12.020546913146973 0.7965699434280396 0.4598998725414276
-11.891923904418945 0.7839226722717285 0.452597975730896
-11.71798038482666 0.7646663784980774 0.4414803385734558
-11.376802444458008 0.7456156611442566 0.4304814040660858
-11.080875396728516 0.7246835231781006 0.41839623451232905
-10.430166244506836 0.7022385001182556 0.4054375886917114
-9.428099632263184 0.7955854535102844 0.4593314826488495
-8.097002983093262 0.8545044064521791 0.4933483302593231
-6.9899210929870605 1.0098661184310913 0.5830464959144592
-5.855381965637207 1.0655254125595093 0.6151813864707947
-4.999711036682129 1.1007674932479858 0.6355283856391907
-4.023008346557617 1.1397777795791626 0.6580510139465332
-3.0805037021636963 1.162513017654419 0.6711772084236145
-1.6753276586532595 1.2133822441101074 0.7005465626716614