# vtk DataFile Version 4.0
 
ASCII
DATASET UNSTRUCTURED_GRID
POINTS 51 float
0.0029719590675085783 -0.00689568929374218 0.003172669094055891
0.002608868759125471 -0.010968602262437344 0.0024488435592502356
0.0023370522540062666 -0.015032120980322361 0.002109294990077615
0.0019680906552821398 -0.01904396153986454 0.001914220745675266
0.0014949451433494687 -0.023000268265604973 0.0018417559331282971
0.001041901996359229 -0.02686486765742302 0.0016867514932528138
0.0007715190295130014 -0.030577832832932476 0.0011093352222815156
0.0007508308626711369 -0.034178368747234344 0.0003318469680380076
0.0009129723184742035 -0.03772745281457901 -0.00029985420405864716
0.0011547972681000829 -0.04117981344461441 -0.0010425710352137685
0.0014014894841238856 -0.04455343633890152 -0.0017942787380889058
0.0016095859464257958 -0.04787176847457886 -0.0024219753686338663
0.0017607304034754632 -0.05112088471651078 -0.003004687139764428
0.0018556131981313229 -0.054285671561956406 -0.003628071630373597
0.0019071486312896013 -0.057367473840713494 -0.004284559283405542
0.0019331572111696005 -0.06037601083517074 -0.004918983206152916
0.0019505200907588003 -0.06332025676965714 -0.005480477120727301
0.0019713775254786015 -0.06620219349861145 -0.005957776214927435
0.002001940505579114 -0.06901565939188004 -0.006385823246091604
0.0020439913496375084 -0.07175180315971375 -0.0068148262798786155
0.0020965919829905033 -0.07440480589866638 -0.007277844939380884
0.002157271606847644 -0.07697447389364243 -0.007775871083140374
0.0022228893358260393 -0.07946433126926422 -0.008288975805044174
0.0022902570199221373 -0.08187849819660187 -0.008793827146291733
0.0023565629962831736 -0.0842200443148613 -0.009272933006286621
0.0024196337908506393 -0.08649078756570816 -0.009716055355966091
0.002478071954101324 -0.08869132399559021 -0.010119738057255745
0.002531298203393817 -0.09082122147083282 -0.010486509650945663
0.0025795181281864643 -0.09287915378808975 -0.010823880322277546
0.0026236188132315874 -0.09486313164234161 -0.011143074370920658
0.002664896659553051 -0.0967709869146347 -0.011456463485956192
0.002704667393118143 -0.09860093891620636 -0.011774100363254547
0.0027439913246780634 -0.10035201162099838 -0.012101521715521812
0.0027835292275995016 -0.10202416777610779 -0.012438924051821232
0.0028234992641955614 -0.1036182940006256 -0.012781337834894657
0.0028637030627578497 -0.10513601452112198 -0.013119472190737724
0.0029035976622253656 -0.1065795198082924 -0.01344097964465618
0.0029423937667161226 -0.10795111209154128 -0.013732753694057466
0.0029791651759296656 -0.10925226658582687 -0.013986464589834213
0.0030129586812108755 -0.11048279702663422 -0.014203133061528208
0.003042890690267086 -0.11164079606533052 -0.014393582940101624
0.003068230813369155 -0.11272304505109788 -0.014576083049178125
0.0030884635634720325 -0.11372556537389755 -0.014773202128708363
0.0031033288687467575 -0.11464343965053558 -0.015012797899544239
0.003112840000540018 -0.11547061055898666 -0.015329286456108093
0.0031172798480838537 -0.11620087176561356 -0.015757782384753227
0.0031171797309070826 -0.1168295592069626 -0.016324782744050026
0.0031132809817790985 -0.11735503375530244 -0.017039570957422256
0.0031064841896295547 -0.1177796572446823 -0.01788879558444023
0.0030977895949035883 -0.11810997128486633 -0.018835267052054405
0.003088234690949321 -0.11835622042417526 -0.01982097141444683

CELLS 50 150
2 0 1
2 1 2
2 2 3
2 3 4
2 4 5
2 5 6
2 6 7
2 7 8
2 8 9
2 9 10
2 10 11
2 11 12
2 12 13
2 13 14
2 14 15
2 15 16
2 16 17
2 17 18
2 18 19
2 19 20
2 20 21
2 21 22
2 22 23
2 23 24
2 24 25
2 25 26
2 26 27
2 27 28
2 28 29
2 29 30
2 30 31
2 31 32
2 32 33
2 33 34
2 34 35
2 35 36
2 36 37
2 37 38
2 38 39
2 39 40
2 40 41
2 41 42
2 42 43
2 43 44
2 44 45
2 45 46
2 46 47
2 47 48
2 48 49
2 49 50

CELL_TYPES 50
4
4
4
4
4
4
4
4
4
4
4
4
4
4
4
4
4
4
4
4
4
4
4
4
4
4
4
4
4
4
4
4
4
4
4
4
4
4
4
4
4
4
4
4
4
4
4
4
4
4

POINT_DATA 51

SCALARS zone float
LOOKUP_TABLE default
1.0
1.0
1.0
1.0
1.0
1.0
1.0
1.0
1.0
1.0
1.0
1.0
1.0
1.0
1.0
1.0
1.0
1.0
1.0
1.0
1.0
1.0
1.0
1.0
1.0
1.0
1.0
1.0
1.0
1.0
1.0
1.0
1.0
1.0
1.0
1.0
1.0
1.0
1.0
1.0
1.0
1.0
1.0
1.0
1.0
1.0
1.0
1.0
1.0
1.0
1.0

VECTORS normals float
-0.00018154516874346882 -0.002036456484347582 -0.00036191282561048865
-0.00031745340675115585 -0.0040682158432900906 -0.0005316870519891381
-0.0003203890810254961 -0.004037679638713598 -0.00026731134857982397
-0.00042105361353605986 -0.003984073642641306 -0.00013376954302657396
-0.0004630943294614554 -0.003910453524440527 -0.00011373464076314123
-0.00036171305691823363 -0.0037887825164943938 -0.0003662104136310518
-0.0001455355522921309 -0.0036567493807524443 -0.0006774522480554879
7.072663720464334e-5 -0.0035748104564845566 -0.0007045946549624205
0.00020198317361064258 -0.0035007232800126076 -0.0006872089579701424
0.00024425858282484114 -0.0034129901323467497 -0.0007472122670151293
0.0002273943391628563 -0.003345977980643511 -0.0006897022249177098
0.00017962048877961934 -0.0032837244216352697 -0.0006052042590454221
0.0001230136549565941 -0.0032069517765194178 -0.0006030480726622045
7.320909935515374e-5 -0.003123294562101364 -0.0006399358971975744
3.8772002881160006e-5 -0.003045168472453952 -0.0006454557878896594
2.1685751562472433e-5 -0.0029763905331492424 -0.0005979589186608791
1.9110158973489888e-5 -0.0029130904003977776 -0.0005193965043872595
2.5710261979838833e-5 -0.002847702708095312 -0.0004526730335783213
3.630685023381375e-5 -0.002774807857349515 -0.00042852506157942116
4.732568413601257e-5 -0.0026945718564093113 -0.0004460110212676227
5.6640183174749836e-5 -0.0026113337371498346 -0.00048052243073470885
6.314866186585277e-5 -0.002529765246436 -0.0005055652000010014
6.649269198533148e-5 -0.0024520105216652155 -0.000508977856952697
6.683685205643997e-5 -0.0023778551258146763 -0.0004919787752442062
6.468839274020866e-5 -0.0023061446845531464 -0.00046111422125250096
6.0754482547054074e-5 -0.0022356414701789618 -0.00042340237996540964
5.583223173744046e-5 -0.002165219746530056 -0.00038522746763192117
5.072306885267608e-5 -0.0020939132664352655 -0.0003520715399645269
4.616025398718193e-5 -0.0020209550857543945 -0.0003282823308836669
4.268924021744169e-5 -0.0019459165632724764 -0.0003162914654240012
4.052436997881159e-5 -0.0018689010757952929 -0.0003155129379592836
3.9547361666336656e-5 -0.0017905110726132987 -0.0003225291147828102
3.943082629120909e-5 -0.0017116157105192544 -0.00033241178607568145
3.97539661207702e-5 -0.0016331410733982918 -0.000339907972374931
4.0087012166623026e-5 -0.001555923605337739 -0.00034027412766590714
4.004923903266899e-5 -0.0014806140679866076 -0.00032982081756927073
3.934526102966629e-5 -0.0014075484359636903 -0.00030664075165987015
3.778377140406519e-5 -0.0013363728066906333 -0.0002727424434851855
3.528250090312213e-5 -0.0012658415362238884 -0.00023518955276813358
3.186270623700693e-5 -0.001194266020320356 -0.0002035592042375356
2.7636049708235078e-5 -0.0011201256420463324 -0.00018647496472112834
2.2786460249335505e-5 -0.0010423847706988454 -0.0001898095797514543
1.7549085896462202e-5 -0.0009601982310414314 -0.000218357439734973
1.21881839731941e-5 -0.0008725213119760156 -0.0002780422510113567
6.97543964633951e-6 -0.0007787143695168197 -0.00037249267916195095
2.169919071093318e-6 -0.00067947554634884 -0.0004977484932169318
-1.999401547436719e-6 -0.0005770822754129767 -0.00064089399529621
-5.347871592675801e-6 -0.0004750475927721709 -0.000782006187364459
-7.745714356133249e-6 -0.0003774687647819519 -0.0008978476980701089
-9.124661119130906e-6 -0.0002882833359763026 -0.0009660879732109606
-4.777432877745014e-6 -0.00012312392937019467 -0.0004928526468575001

CELL_DATA 50

VECTORS liftinglineloading               float
0.09421397745609283 0.025188958272337914 -0.0940064787864685
0.12088441103696822 0.03742227703332901 -0.13966184854507446
-0.0326213538646698 0.011451111175119877 -0.042736127972602844
0.14401932060718536 0.023262595757842064 -0.0868171900510788
0.0047608306631445885 0.04213976487517357 -0.1572677493095398
-0.7404296398162842 0.10701300203800201 -0.3993779420852661
-1.7833143472671509 0.20021259784698486 -0.7472035884857178
-2.983163833618164 0.2809390425682068 -1.0484787225723267
-4.409241199493408 0.36584293842315674 -1.3653444051742554
-5.669743061065674 0.43113332986831665 -1.6090115308761597
-6.624521732330322 0.468817263841629 -1.7496498823165894
-7.4259419441223145 0.49979296326637274 -1.8652527332305908
-7.994093894958496 0.5118134021759033 -1.9101136922836301
-7.639928817749023 0.4757675230503082 -1.7755886316299438
-7.609112739562988 0.4506930708885193 -1.6820093393325803
-7.749787330627441 0.4362364709377289 -1.6280567646026614
-7.701722621917725 0.41704562306404114 -1.556435465812683
-7.969434738159179 0.41044485569000244 -1.5318009853363037
-8.078821182250977 0.4028129577636719 -1.503318428993225
-8.292154312133789 0.401364803314209 -1.4979138374328613
-8.677238464355469 0.40024062991142273 -1.4937183856964111
-8.989943504333496 0.3873661160469055 -1.4456700086593628
-9.088275909423828 0.3738372325897217 -1.3951795101165771
-9.333517074584961 0.3674493134021759 -1.3713394403457642
-9.590041160583496 0.35936135053634644 -1.3411548137664795
-9.824453353881836 0.3528378903865814 -1.3168089389801025
-10.22500228881836 0.3451966941356659 -1.288291573524475
-10.550925254821777 0.33457422256469727 -1.2486480474472046
-10.90876293182373 0.323404997587204 -1.2069638967514038
-11.282013893127441 0.3113904893398285 -1.1621252298355103
-11.461722373962402 0.29689016938209534 -1.1080092191696167
-12.022947311401367 0.2892661392688751 -1.079555869102478
-12.077901840209961 0.2722969651222229 -1.016226053237915
-12.112831115722656 0.2611546516418457 -0.9746423959732056
-12.120881080627441 0.251997172832489 -0.9404662847518921
-12.171123504638672 0.2424026727676392 -0.9046590924263
-12.060797691345215 0.23798054456710815 -0.8881555199623109
-11.90299129486084 0.23452048003673556 -0.8752423524856566
-11.704495429992676 0.22899022698402408 -0.8546031713485719
-11.313702583312988 0.2236427515745163 -0.8346461057662965
-11.005535125732422 0.21741032600402832 -0.8113863468170165
-10.350122451782227 0.21039646863937378 -0.7852103114128113
-9.3515625 0.23814824223518374 -0.8887813687324523
-8.054019927978516 0.2556171417236328 -0.9539761543273926
-6.947005748748779 0.30179306864738464 -1.1263071298599243
-5.8197407722473145 0.3183557689189911 -1.188119888305664
-4.970623970031738 0.328909307718277 -1.2275062799453735
-4.001663684844971 0.34062644839286804 -1.2712352275848389
-3.0672359466552734 0.3474947214126587 -1.2968679666519165
-1.670479416847229 0.36280888319015503 -1.3540211915969849