# vtk DataFile Version 4.0
 
ASCII
DATASET UNSTRUCTURED_GRID
POINTS 51 float
0.0029719590675085783 0.006554103456437587 0.003828849643468857
0.002608868759125471 0.00829730648547411 0.007580353878438474
0.0023370522540062666 0.010349903255701065 0.011103750206530094
0.0019680906552821398 0.012491204775869846 0.014501947909593582
0.0014949451433494687 0.014701089821755886 0.017784329131245613
0.001041901996359229 0.016790760681033134 0.021038930863142014
0.0007715190295130014 0.01844743825495243 0.024411605671048164
0.0007508308626711369 0.01987573876976967 0.02780693955719471
0.0009129723184742035 0.021393952891230583 0.031076511368155476
0.0011547972681000829 0.0227657463401556 0.034330520778894424
0.0014014894841238856 0.024085013195872307 0.03752519190311432
0.0016095859464257958 0.025474153459072113 0.04060344398021698
0.0017607304034754632 0.026860438287258145 0.043599195778369904
0.0018556131981313229 0.02816504053771496 0.046549197286367416
0.0019071486312896013 0.029394924640655518 0.04945020377635956
0.0019331572111696005 0.030600860714912415 0.0522785447537899
0.0019505200907588003 0.03182966262102127 0.05501238629221916
0.0019713775254786015 0.03309169411659241 0.057646900415420525
0.002001940505579114 0.0343547947704792 0.06019707769155503
0.0020439913496375084 0.03557276725769043 0.06268446147441864
0.0020965919829905033 0.036715179681777954 0.06512324512004852
0.002157271606847644 0.03778112307190895 0.0675138533115387
0.0022228893358260393 0.03878893703222275 0.06984773278236389
0.0022902570199221373 0.03976009413599968 0.07211486995220184
0.0023565629962831736 0.0407106913626194 0.07430775463581085
0.0024196337908506393 0.04165014997124672 0.07642200589179993
0.002478071954101324 0.042581651359796524 0.07845612615346909
0.002531298203393817 0.043502867221832275 0.08041120320558548
0.0025795181281864643 0.044406890869140625 0.08229047060012817
0.0026236188132315874 0.04528338462114334 0.08409873396158218
0.002664896659553051 0.04612097144126892 0.08584130555391312
0.002704667393118143 0.04691039398312569 0.08752250671386719
0.0027439913246780634 0.04764655977487564 0.08914469927549362
0.0027835292275995016 0.04832929000258446 0.09070798009634018
0.0028234992641955614 0.04896315187215805 0.09221021085977554
0.0028637030627578497 0.04955669865012169 0.09364739805459976
0.0029035976622253656 0.05012129619717598 0.09501425921916962
0.0029423937667161226 0.050668999552726746 0.09630516171455383
0.0029791651759296656 0.051207482814788825 0.09751652181148529
0.0030129586812108755 0.05173580348491669 0.0986487865447998
0.003042890690267086 0.052243996411561966 0.09970660507678986
0.003068230813369155 0.0527152568101883 0.10069780796766281
0.0030884635634720325 0.05312880501151085 0.10163208842277527
0.0031033288687467575 0.053459014743566506 0.10252139717340471
0.003112840000540018 0.053674202412366874 0.10338050127029418
0.0031172798480838537 0.05374206230044365 0.10422447323799133
0.0031171797309070826 0.05363820120692254 0.10506468266248703
0.0031132809817790985 0.053354084491729736 0.10590511560440063
0.0031064841896295547 0.052901990711688995 0.10674003511667253
0.0030977895949035883 0.052316151559352875 0.10755348950624465
0.003088234690949321 0.051649950444698334 0.10832058638334273

CELLS 50 150
2 0 1
2 1 2
2 2 3
2 3 4
2 4 5
2 5 6
2 6 7
2 7 8
2 8 9
2 9 10
2 10 11
2 11 12
2 12 13
2 13 14
2 14 15
2 15 16
2 16 17
2 17 18
2 18 19
2 19 20
2 20 21
2 21 22
2 22 23
2 23 24
2 24 25
2 25 26
2 26 27
2 27 28
2 28 29
2 29 30
2 30 31
2 31 32
2 32 33
2 33 34
2 34 35
2 35 36
2 36 37
2 37 38
2 38 39
2 39 40
2 40 41
2 41 42
2 42 43
2 43 44
2 44 45
2 45 46
2 46 47
2 47 48
2 48 49
2 49 50

CELL_TYPES 50
4
4
4
4
4
4
4
4
4
4
4
4
4
4
4
4
4
4
4
4
4
4
4
4
4
4
4
4
4
4
4
4
4
4
4
4
4
4
4
4
4
4
4
4
4
4
4
4
4
4

POINT_DATA 51

SCALARS zone float
LOOKUP_TABLE default
1.0
1.0
1.0
1.0
1.0
1.0
1.0
1.0
1.0
1.0
1.0
1.0
1.0
1.0
1.0
1.0
1.0
1.0
1.0
1.0
1.0
1.0
1.0
1.0
1.0
1.0
1.0
1.0
1.0
1.0
1.0
1.0
1.0
1.0
1.0
1.0
1.0
1.0
1.0
1.0
1.0
1.0
1.0
1.0
1.0
1.0
1.0
1.0
1.0
1.0
1.0

VECTORS normals float
-0.00018154516874346882 0.0008716018055565655 0.0018757521174848082
-0.00031745340675115585 0.0018979001324623823 0.0036374505143612623
-0.0003203890810254961 0.0020969491451978683 0.0034607970155775547
-0.00042105361353605986 0.0021755932830274105 0.0033402892295271154
-0.0004630943294614554 0.002149777952581644 0.003268491476774216
-0.00036171305691823363 0.0018731743330135942 0.0033136385027319197
-0.0001455355522921309 0.0015424888115376234 0.003384004347026348
7.072663720464334e-5 0.001473256852477789 0.003332452150061726
0.00020198317361064258 0.0014450037851929665 0.003261791542172432
0.00024425858282484114 0.0013455302687361836 0.003224341198801994
0.0002273943391628563 0.0013542030937969685 0.0031364616006612778
0.00017962048877961934 0.0013877126621082425 0.0030370005406439304
0.0001230136549565941 0.001345443888567388 0.0029728752560913563
7.320909935515374e-5 0.0012672434095293283 0.002925505395978689
3.8772002881160006e-5 0.0012179104378446937 0.00286467419937253
2.1685751562472433e-5 0.0012173682916909456 0.0027810917235910892
1.9110158973489888e-5 0.0012454154202714562 0.0026841775979846716
2.5710261979838833e-5 0.001262567238882184 0.002592344069853425
3.630685023381375e-5 0.0012405372690409422 0.0025187814608216286
4.732568413601257e-5 0.0011801921064034104 0.0024630853440612555
5.6640183174749836e-5 0.0011041784891858697 0.0024146956857293844
6.314866186585277e-5 0.0010368789080530405 0.002362242667004466
6.649269198533148e-5 0.0009894852992147207 0.0023005071561783552
6.683685205643997e-5 0.0009608762920834124 0.002230012323707342
6.468839274020866e-5 0.0009450275101698936 0.002153567271307111
6.0754482547054074e-5 0.0009354802896268665 0.0020741838961839676
5.583223173744046e-5 0.0009263592073693871 0.001994601683691144
5.072306885267608e-5 0.0009126191725954413 0.0019171732710674407
4.616025398718193e-5 0.0008902590489014983 0.001843764563091099
4.268924021744169e-5 0.0008570411009714007 0.0017754188738763335
4.052436997881159e-5 0.00081350450636819 0.0017118848627433183
3.9547361666336656e-5 0.0007627945742569864 0.001651695929467678
3.943082629120909e-5 0.0007094466127455235 0.0015927370404824617
3.97539661207702e-5 0.0006582949426956475 0.0015327540459111333
4.0087012166623026e-5 0.0006137049058452249 0.0014697113074362278
4.004923903266899e-5 0.0005790719296783209 0.0014020254602655768
3.934526102966629e-5 0.0005561512080021203 0.001328878104686737
3.778377140406519e-5 0.0005430944147519767 0.001251131179742515
3.528250090312213e-5 0.0005334009183570743 0.0011718159075826406
3.186270623700693e-5 0.0005182569148018956 0.0010950422147288918
2.7636049708235078e-5 0.0004897263133898377 0.0010245108278468251
2.2786460249335505e-5 0.00044240444549359387 0.0009627419640310109
1.7549085896462202e-5 0.0003718791122082621 0.0009117930312640965
1.21881839731941e-5 0.0002726987877395004 0.0008742061327211559
6.97543964633951e-6 0.00014152405492495745 0.000851538497954607
2.169919071093318e-6 -1.8000555428443477e-5 0.0008420905796810985
-1.999401547436719e-6 -0.0001939888170454651 0.00084031984442845
-5.347871592675801e-6 -0.0003681058587972075 0.0008376765181310474
-7.745714356133249e-6 -0.0005189665826037526 0.0008241885807365178
-9.124661119130906e-6 -0.0006260204245336354 0.0007902731886133552
-4.777432877745014e-6 -0.0003331002371851355 0.00038354587741196156

CELL_DATA 50

VECTORS liftinglineloading               float
0.13539515435695648 -0.1167530342936516 0.042494628578424454
0.20279774069786072 -0.20186646282672882 0.07347338646650314
-0.0880008265376091 -0.0429406613111496 0.015629122033715248
0.11903118342161177 -0.06695180386304855 0.024368463084101677
0.10397270321846008 -0.11174356937408447 0.04067133367061615
-0.5105862617492676 -0.3168502151966095 0.11532404273748396
-1.4733123779296875 -0.6673673987388611 0.24290187656879425
-2.661320447921753 -0.9843702912330627 0.3582814931869507
-4.004279136657715 -1.292428731918335 0.47040557861328125
-5.183928489685059 -1.526606798171997 0.5556394457817078
-6.0096259117126465 -1.6428906917572021 0.597963273525238
-6.758429050445556 -1.7578856945037842 0.6398180723190308
-7.337964057922363 -1.8048876523971555 0.65692538022995
-7.01216697692871 -1.678300738334656 0.610851526260376
-6.850666046142577 -1.5665992498397827 0.5701954960823059
-7.012878894805908 -1.522037386894226 0.55397629737854
-6.992100715637207 -1.4661046266555786 0.5336184501647949
-7.411948204040527 -1.4696414470672607 0.534905731678009
-7.599751949310303 -1.4480531215667725 0.5270482301712036
-7.945714950561523 -1.4483754634857178 0.5271655917167664
-8.306139945983887 -1.447586178779602 0.526878297328949
-8.678733825683594 -1.405815601348877 0.5116750597953796
-8.86933708190918 -1.3633173704147339 0.4962069392204284
-9.199100494384766 -1.3448138236999512 0.4894721806049347
-9.507143020629883 -1.3184826374053955 0.4798884391784668
-9.856987953186035 -1.2960368394851685 0.4717188179492951
-10.226431846618652 -1.2677912712097168 0.4614382684230805
-10.551568031311035 -1.2282994985580444 0.4470644295215606
-10.915182113647461 -1.1868395805358887 0.4319742918014526
-11.30682373046875 -1.1424883604049683 0.4158317446708679
-11.472939491271973 -1.0897407531738281 0.39663317799568176
-12.04564380645752 -1.0617451667785645 0.3864436447620392
-12.100915908813477 -0.9996680617332458 0.3638494312763214
-12.13336181640625 -0.9581535458564757 0.3487393856048584
-12.13843059539795 -0.9238817691802977 0.3362654745578766
-12.092586517333984 -0.8915328979492189 0.3244914412498474
-12.001214981079102 -0.8734103441238402 0.3178953528404236
-11.866305351257324 -0.859088659286499 0.3126826882362366
-11.695246696472168 -0.8374303579330443 0.30479973554611206
-11.31551742553711 -0.8177824020385741 0.29764845967292786
-11.04686164855957 -0.7936480045318604 0.28886425495147705
-10.427356719970703 -0.7672832012176514 0.2792682349681854
-9.456308364868164 -0.8684675097465514 0.31609633564949036
-8.150659561157227 -0.9326222538948059 0.3394467532634735
-7.070706844329833 -1.10318922996521 0.4015280306339264
-5.964229583740234 -1.1657592058181763 0.42430162429809565
-5.137476444244385 -1.2061196565628052 0.43899163603782654
-4.185245990753174 -1.2508481740951538 0.4552715122699738
-3.068828582763672 -1.2777262926101685 0.46505433320999146
-1.8191663026809692 -1.3361700773239136 0.4863261282444