# vtk DataFile Version 4.0
 
ASCII
DATASET UNSTRUCTURED_GRID
POINTS 51 float
0.0029719590675085783 -0.0037615951150655746 -0.006592932622879744
0.002608868759125471 -0.0033955015242099758 -0.010713432915508747
0.0023370522540062666 -0.003411404322832823 -0.014791081659495829
0.0019680906552821398 -0.003566727042198181 -0.018804658204317093
0.0014949451433494687 -0.0038393530994653706 -0.022752225399017334
0.001041901996359229 -0.004021760541945696 -0.026615628972649578
0.0007715190295130014 -0.0037701474502682686 -0.030364790931344036
0.0007508308626711369 -0.003309425199404359 -0.034019384533166885
0.0009129723184742035 -0.0029894511681050062 -0.037610024213790894
0.0011547972681000829 -0.002550453646108508 -0.04111397638916969
0.0014014894841238856 -0.0020956366788595915 -0.04454027861356735
0.0016095859464257958 -0.0017595405224710705 -0.047900691628456116
0.0017607304034754632 -0.001462225103750825 -0.05118823051452637
0.0018556131981313229 -0.0011170424986630678 -0.05439530685544013
0.0019071486312896013 -0.000731649633962661 -0.05752259492874146
0.0019331572111696005 -0.0003618511254899204 -0.0605749785900116
0.0019505200907588003 -5.910167237743735e-5 -0.06355695426464081
0.0019713775254786015 0.00016520377539563924 -0.06646952778100967
0.002001940505579114 0.00034641197999008 -0.06930959224700928
0.0020439913496375084 0.0005353116430342197 -0.07207272201776505
0.0020965919829905033 0.0007653447682969272 -0.07475597411394119
0.002157271606847644 0.0010375140700489283 -0.07735927402973175
0.0022228893358260393 0.001331660314463079 -0.07988438010215759
0.0022902570199221373 0.0016241824487224221 -0.08233335614204407
0.0023565629962831736 0.0018973861588165164 -0.08470775187015533
0.0024196337908506393 0.0021409140899777412 -0.08700846880674362
0.002478071954101324 0.0023512705229222775 -0.089235819876194
0.002531298203393817 0.002531014382839203 -0.09138958156108856
0.0025795181281864643 0.002687741070985794 -0.09346908330917358
0.0026236188132315874 0.0028328050393611193 -0.09547333419322968
0.002664896659553051 0.0029787211678922176 -0.09740123897790909
0.002704667393118143 0.0031356588006019592 -0.09925191104412079
0.0027439913246780634 0.0033092182129621506 -0.10102485865354538
0.0027835292275995016 0.0034995982423424725 -0.10272005945444107
0.0028234992641955614 0.003701771842315793 -0.10433796048164368
0.0028637030627578497 0.003906341269612312 -0.10587938129901885
0.0029035976622253656 0.0041008153930306435 -0.10734540969133377
0.0029423937667161226 0.004271937534213066 -0.10873721539974211
0.0029791651759296656 0.00441127922385931 -0.11005552858114244
0.0030129586812108755 0.004519875627011061 -0.1113002598285675
0.003042890690267086 0.004608674440532923 -0.11247045546770097
0.003068230813369155 0.004696155898272991 -0.11356449127197266
0.0030884635634720325 0.004805149044841528 -0.1145803779363632
0.0031033288687467575 0.00496383523568511 -0.11551564186811447
0.003112840000540018 0.005207027308642864 -0.11636724323034285
0.0031172798480838537 0.005570246838033199 -0.11713207513093948
0.0031171797309070826 0.006080295890569687 -0.11780778318643569
0.0031132809817790985 0.006746564991772175 -0.11839356273412704
0.0031064841896295547 0.007555550429970026 -0.11889057606458664
0.0030977895949035883 0.008469630032777786 -0.11930213123559952
0.003088234690949321 0.009430122561752796 -0.11963335424661638

CELLS 50 150
2 0 1
2 1 2
2 2 3
2 3 4
2 4 5
2 5 6
2 6 7
2 7 8
2 8 9
2 9 10
2 10 11
2 11 12
2 12 13
2 13 14
2 14 15
2 15 16
2 16 17
2 17 18
2 18 19
2 19 20
2 20 21
2 21 22
2 22 23
2 23 24
2 24 25
2 25 26
2 26 27
2 27 28
2 28 29
2 29 30
2 30 31
2 31 32
2 32 33
2 33 34
2 34 35
2 35 36
2 36 37
2 37 38
2 38 39
2 39 40
2 40 41
2 41 42
2 42 43
2 43 44
2 44 45
2 45 46
2 46 47
2 47 48
2 48 49
2 49 50

CELL_TYPES 50
4
4
4
4
4
4
4
4
4
4
4
4
4
4
4
4
4
4
4
4
4
4
4
4
4
4
4
4
4
4
4
4
4
4
4
4
4
4
4
4
4
4
4
4
4
4
4
4
4
4

POINT_DATA 51

SCALARS zone float
LOOKUP_TABLE default
1.0
1.0
1.0
1.0
1.0
1.0
1.0
1.0
1.0
1.0
1.0
1.0
1.0
1.0
1.0
1.0
1.0
1.0
1.0
1.0
1.0
1.0
1.0
1.0
1.0
1.0
1.0
1.0
1.0
1.0
1.0
1.0
1.0
1.0
1.0
1.0
1.0
1.0
1.0
1.0
1.0
1.0
1.0
1.0
1.0
1.0
1.0
1.0
1.0
1.0
1.0

VECTORS normals float
-0.00018154516874346882 0.00018304676632396877 -0.002060249913483858
-0.00031745340675115585 0.0001750954397721216 -0.004099074751138687
-0.0003203890810254961 -8.561279537389055e-5 -0.004045612644404173
-0.00042105361353605986 -0.00021397440286818892 -0.003980571869760752
-0.0004630943294614554 -0.00022751663345843556 -0.0039054858498275276
-0.00036171305691823363 3.460271909716539e-5 -0.003806282300502062
-0.0001455355522921309 0.00035616764216683805 -0.0037018780130892996
7.072663720464334e-5 0.00039034822839312255 -0.0036226166412234306
0.00020198317361064258 0.00037948580575175583 -0.0035472961608320475
0.00024425858282484114 0.0004469072155188769 -0.0034651265013962984
0.0002273943391628563 0.000395456503611058 -0.0033933569211512804
0.00017962048877961934 0.00031670581665821373 -0.0033239759504795074
0.0001230136549565941 0.00032124901190400124 -0.0032473073806613684
7.320909935515374e-5 0.0003652877057902515 -0.003167183604091406
3.8772002881160006e-5 0.0003775956865865737 -0.0030898358672857285
2.1685751562472433e-5 0.00033627398079261184 -0.003017180133610964
1.9110158973489888e-5 0.0002635274431668222 -0.002947273664176464
2.5710261979838833e-5 0.00020275682618375865 -0.002876319456845522
3.630685023381375e-5 0.00018505394109524786 -0.002801597351208329
4.732568413601257e-5 0.00020946639415342358 -0.002723190700635314
5.6640183174749836e-5 0.0002511011844035238 -0.002643277170136571
6.314866186585277e-5 0.00028315780218690634 -0.002564201597124338
6.649269198533148e-5 0.0002933342184405774 -0.0024870403576642275
6.683685205643997e-5 0.00028286289307288826 -0.0024116854183375835
6.468839274020866e-5 0.0002583657915238291 -0.002337557729333639
6.0754482547054074e-5 0.00022694221115671096 -0.0022640360984951258
5.583223173744046e-5 0.00019505021919030696 -0.002190555213019252
5.072306885267608e-5 0.00016823524492792785 -0.00211663031950593
4.616025398718193e-5 0.0001508952846052125 -0.0020418765489012003
4.268924021744169e-5 0.000145490063005127 -0.0019660783000290394
4.052436997881159e-5 0.00015142686606850475 -0.0018892880761995912
3.9547361666336656e-5 0.00016524846432730556 -0.0018118078587576747
3.943082629120909e-5 0.00018196972087025642 -0.0017340740887448194
3.97539661207702e-5 0.00019627688743639737 -0.0016565513797104359
4.0087012166623026e-5 0.00020337160094641146 -0.0015796597581356764
4.004923903266899e-5 0.00019952174625359476 -0.0015037256525829434
3.934526102966629e-5 0.00018279795767739415 -0.001428917865268886
3.778377140406519e-5 0.00015523201727773994 -0.0013550586299970746
3.528250090312213e-5 0.00012396922102198005 -0.0012815227964892983
3.186270623700693e-5 9.86974555416964e-5 -0.0012074628612026572
2.7636049708235078e-5 8.813999011181295e-5 -0.0011321156052872539
2.2786460249335505e-5 9.823746950132772e-5 -0.001054961234331131
1.7549085896462202e-5 0.0001338397414656356 -0.0009755754726938902
1.21881839731941e-5 0.0002009389863815159 -0.0008934341021813452
6.97543964633951e-6 0.0003032058011740446 -0.0008082159911282361
2.169919071093318e-6 0.0004366342327557504 -0.0007202715496532619
-1.999401547436719e-6 0.0005881591350771487 -0.0006307439180091023
-5.347871592675801e-6 0.0007376272697001696 -0.0005413962062448263
-7.745714356133249e-6 0.0008615325205028058 -0.000454284978331998
-9.124661119130906e-6 0.000937286182306707 -0.0003713864425662905
-4.777432877745014e-6 0.00048024620627984405 -0.00016561034135520458

CELL_DATA 50

VECTORS liftinglineloading               float
0.03113173320889473 0.04612690210342407 0.008133417926728725
-0.005626586265861988 0.013927431777119635 0.0024557821452617645
0.05099276453256607 0.08286421000957489 0.014611196704208849
-0.03738965094089508 0.14602795243263245 0.025748668238520622
-0.5186699628829956 0.3225996792316437 0.05688302963972092
-1.3109928369522095 0.5479839444160461 0.09662435203790665
-2.3968505859375 0.8204094767570494 0.1446603238582611
-3.5686593055725093 1.1028809547424316 0.1944676637649536
-5.000033378601074 1.4136825799942017 0.24927037954330442
-6.287762641906738 1.6650660037994387 0.2935960590839386
-7.335419654846192 1.8396176099777222 0.3243742287158966
-8.118218421936035 1.9438743591308592 0.3427574932575226
-8.60022258758545 1.979341983795166 0.3490113914012909
-8.346114158630371 1.8630356788635254 0.32850345969200134
-8.46720027923584 1.793835997581482 0.31630170345306396
-8.680906295776367 1.7439247369766235 0.3075009882450104
-8.750747680664062 1.6689711809158327 0.2942846715450287
-9.002872467041016 1.6217100620269775 0.2859512269496918
-9.246109962463379 1.5914554595947266 0.28061652183532715
-9.289878845214844 1.5848203897476196 0.2794466018676758
-9.628338813781738 1.5657275915145874 0.27608001232147217
-9.873886108398438 1.5108320713043213 0.26640045642852783
-9.842215538024902 1.4487686157226562 0.25545698404312134
-9.9465913772583 1.4151861667633057 0.24953550100326538
-10.054858207702637 1.3757683038711548 0.24258507788181305
-10.239023208618164 1.3465373516082764 0.23743087053298947
-10.498982429504395 1.3146648406982422 0.2318108975887299
-10.764540672302246 1.2742531299591064 0.22468520700931552
-11.066493034362793 1.231283187866211 0.21710844337940213
-11.408473014831543 1.185095191001892 0.20896425843238833
-11.548192024230957 1.1300008296966553 0.19924964010715485
-12.127998352050781 1.0991274118423462 0.19380581378936768
-12.204231262207031 1.0318880081176758 0.1819496899843216
-12.265109062194824 0.987789273262024 0.17417389154434204
-12.299710273742676 0.9515709280967712 0.16778762638568878
-12.28251838684082 0.9179520010948181 0.16185970604419708
-12.215215682983398 0.8998166918754577 0.15866196155548096
-12.105053901672363 0.8857181668281554 0.15617600083351135
-11.932271003723145 0.8642745614051818 0.15239493548870087
-11.554522514343262 0.8443973064422607 0.14889003336429596
-11.257684707641602 0.8211498260498047 0.1447908729314804
-10.599775314331055 0.797921359539032 0.14069506525993347
-9.582784652709961 0.905397057533264 0.1596459299325943
-8.244455337524414 0.9740221500396727 0.1717463880777359
-7.129230499267579 1.1536718606948853 0.203423485159874
-5.989645004272461 1.2186086177825928 0.21487358212471008
-5.130147457122803 1.2594754695892334 0.22207951545715335
-4.147195339202881 1.3046557903289795 0.2300460189580917
-3.2318198680877686 1.3336732387542725 0.23516257107257846
-1.7754251956939697 1.3923364877700806 0.2455064803361893