# vtk DataFile Version 4.0
 
ASCII
DATASET UNSTRUCTURED_GRID
POINTS 51 float
0.0029719590675085783 -0.005839576944708824 0.004849298857152462
0.002608868759125471 -0.009961049072444439 0.005204284097999334
0.0023370522540062666 -0.01397398766130209 0.005928021855652332
0.0019680906552821398 -0.017899617552757263 0.006777935195714235
0.0014949451433494687 -0.02173987217247486 0.007731907069683075
0.001041901996359229 -0.025512907654047012 0.008582415990531445
0.0007715190295130014 -0.029248801991343498 0.008985660970211029
0.0007508308626711369 -0.03292787820100784 0.009166551753878593
0.0009129723184742035 -0.03651953116059303 0.00947494711726904
0.0011547972681000829 -0.040046483278274536 0.009651074185967445
0.0014014894841238856 -0.04349970817565918 0.009798137471079826
0.0016095859464257958 -0.046867430210113525 0.010050676763057709
0.0017607304034754632 -0.05015665292739868 0.010328752920031548
0.0018556131981313229 -0.05337494611740112 0.010545718483626842
0.0019071486312896013 -0.056521650403738015 0.010709227994084358
0.0019331572111696005 -0.059591874480247504 0.010875088162720203
0.0019505200907588003 -0.0625811219215393 0.011094753630459309
0.0019713775254786015 -0.06548839062452316 0.01137961819767952
0.002001940505579114 -0.06831678003072739 0.011694335378706455
0.0020439913496375084 -0.07107073068618774 0.01198811735957861
0.0020965919829905033 -0.07375316321849823 0.012227521277964115
0.002157271606847644 -0.0763641744852066 0.012411545030772686
0.0022228893358260393 -0.0789019986987114 0.012560347095131874
0.0022902570199221373 -0.08136456459760666 0.01269752997905016
0.0023565629962831736 -0.08375032991170883 0.012840786017477512
0.0024196337908506393 -0.08605838567018509 0.013000473380088806
0.002478071954101324 -0.08828842639923096 0.013180088251829149
0.002531298203393817 -0.09044067561626434 0.013377071358263493
0.0025795181281864643 -0.09251579642295837 0.013583827763795853
0.0026236188132315874 -0.09451479464769363 0.013789001852273941
0.002664896659553051 -0.09643874317407608 0.013980080373585226
0.002704667393118143 -0.09828855097293854 0.014146892353892326
0.0027439913246780634 -0.1000647023320198 0.01428383868187666
0.0027835292275995016 -0.10176721215248107 0.014390719123184681
0.0028234992641955614 -0.10339563339948653 0.014472562819719315
0.0028637030627578497 -0.10494916141033173 0.014538765884935856
0.0029035976622253656 -0.1064266934990883 0.014601820148527622
0.0029423937667161226 -0.10782706737518309 0.01467498205602169
0.0029791651759296656 -0.10914954543113708 0.014766679145395758
0.0030129586812108755 -0.11039422452449799 0.014875878579914572
0.003042890690267086 -0.1115620583295822 0.014991630800068378
0.003068230813369155 -0.1126546710729599 0.015095456503331663
0.0030884635634720325 -0.11367404460906982 0.015164525248110296
0.0031033288687467575 -0.11462265998125076 0.015170657075941563
0.003112840000540018 -0.11550355702638627 0.015079039148986341
0.0031172798480838537 -0.11631983518600462 0.014854148961603643
0.0031171797309070826 -0.11707385629415512 0.014469184912741184
0.0031132809817790985 -0.11776642501354218 0.01391475647687912
0.0031064841896295547 -0.11839637160301208 0.013204367831349375
0.0030977895949035883 -0.11896040290594101 0.012375639751553535
0.003088234690949321 -0.11945337802171707 0.011487255804240704

CELLS 50 150
2 0 1
2 1 2
2 2 3
2 3 4
2 4 5
2 5 6
2 6 7
2 7 8
2 8 9
2 9 10
2 10 11
2 11 12
2 12 13
2 13 14
2 14 15
2 15 16
2 16 17
2 17 18
2 18 19
2 19 20
2 20 21
2 21 22
2 22 23
2 23 24
2 24 25
2 25 26
2 26 27
2 27 28
2 28 29
2 29 30
2 30 31
2 31 32
2 32 33
2 33 34
2 34 35
2 35 36
2 36 37
2 37 38
2 38 39
2 39 40
2 40 41
2 41 42
2 42 43
2 43 44
2 44 45
2 45 46
2 46 47
2 47 48
2 48 49
2 49 50

CELL_TYPES 50
4
4
4
4
4
4
4
4
4
4
4
4
4
4
4
4
4
4
4
4
4
4
4
4
4
4
4
4
4
4
4
4
4
4
4
4
4
4
4
4
4
4
4
4
4
4
4
4
4
4

POINT_DATA 51

SCALARS zone float
LOOKUP_TABLE default
1.0
1.0
1.0
1.0
1.0
1.0
1.0
1.0
1.0
1.0
1.0
1.0
1.0
1.0
1.0
1.0
1.0
1.0
1.0
1.0
1.0
1.0
1.0
1.0
1.0
1.0
1.0
1.0
1.0
1.0
1.0
1.0
1.0
1.0
1.0
1.0
1.0
1.0
1.0
1.0
1.0
1.0
1.0
1.0
1.0
1.0
1.0
1.0
1.0
1.0
1.0

VECTORS normals float
-0.00018154516874346882 -0.0020607358310371637 0.00017749276594258845
-0.00031745340675115585 -0.004067205358296633 0.0005393614992499352
-0.0003203890810254961 -0.003969284240156412 0.0007868254324421287
-0.00042105361353605986 -0.003882941789925099 0.0009019427234306931
-0.0004630943294614554 -0.003806644817814231 0.0009022406302392483
-0.00036171305691823363 -0.003754465142264962 0.000626876950263977
-0.0001455355522921309 -0.0037074862048029895 0.00029206773615442216
7.072663720464334e-5 -0.0036353643517941236 0.0002446428406983614
0.00020198317361064258 -0.0035593018401414156 0.00024226095410995185
0.00024425858282484114 -0.0034900882747024298 0.00016159522056113929
0.0002273943391628563 -0.0034104746300727125 0.0001998016523430124
0.00017962048877961934 -0.0033284726087003946 0.00026530801551416516
0.0001230136549565941 -0.0032537579536437984 0.0002475205110386014
7.320909935515374e-5 -0.003182498505339027 0.00019023749337065965
3.8772002881160006e-5 -0.0031084632501006126 0.00016468520334456116
2.1685751562472433e-5 -0.0030297357589006424 0.000192762614460662
1.9110158973489888e-5 -0.0029482590034604073 0.00025226481375284493
2.5710261979838833e-5 -0.0028678299859166145 0.0002997911360580474
3.630685023381375e-5 -0.002791169099509716 0.0003042497264686972
4.732568413601257e-5 -0.00271819275803864 0.00026659294962882996
5.6640183174749836e-5 -0.002646723063662648 0.00021171386470086873
6.314866186585277e-5 -0.002574415411800146 0.00016641293768770993
6.649269198533148e-5 -0.002500193426385522 0.00014299219765234739
6.683685205643997e-5 -0.002424165140837431 0.00014021921379026026
6.468839274020866e-5 -0.002346909837797284 0.00015147200610954314
6.0754482547054074e-5 -0.0022690482437610626 0.000169651277246885
5.583223173744046e-5 -0.0021911459043622017 0.00018829895998351276
5.072306885267608e-5 -0.0021136878058314323 0.0002018696250161156
4.616025398718193e-5 -0.002037058351561427 0.00020596527610905468
4.268924021744169e-5 -0.001961473375558853 0.00019812618847936395
4.052436997881159e-5 -0.0018868804909288883 0.00017894509073812515
3.9547361666336656e-5 -0.0018129775999113917 0.00015187916869763285
3.943082629120909e-5 -0.0017393282614648342 0.00012191361020086333
3.97539661207702e-5 -0.0016654677456244824 9.43621271289885e-5
4.0087012166623026e-5 -0.001590976258739829 7.402309711324051e-5
4.004923903266899e-5 -0.001515527255833149 6.46286498522386e-5
3.934526102966629e-5 -0.0014389519346877933 6.810812919866294e-5
3.778377140406519e-5 -0.0013614279450848699 8.242976036854088e-5
3.528250090312213e-5 -0.0012835805537179112 0.00010044824739452451
3.186270623700693e-5 -0.0012062573805451393 0.00011247570364503191
2.7636049708235078e-5 -0.0011302215280011296 0.00010978885256918147
2.2786460249335505e-5 -0.0010559927904978395 8.644706394989043e-5
1.7549085896462202e-5 -0.0009839952690526843 3.760049366974272e-5
1.21881839731941e-5 -0.0009147535311058165 -4.2743064113892615e-5
6.97543964633951e-6 -0.0008485884754918516 -0.00015825420268811285
2.169919071093318e-6 -0.0007851497502997518 -0.0003049269434995949
-1.999401547436719e-6 -0.0007232942734844983 -0.00046969615505076945
-5.347871592675801e-6 -0.0006612588185817003 -0.0006324085989035666
-7.745714356133249e-6 -0.0005969869089312851 -0.0007695581298321486
-9.124661119130906e-6 -0.0005285022780299187 -0.0008585561299696565
-4.777432877745014e-6 -0.0002464882272761315 -0.00044419226469472056

CELL_DATA 50

VECTORS liftinglineloading               float
0.08618249744176865 -2.978101932794912e-16 -0.09140919893980026
0.09775038808584213 -3.9933500647202e-16 -0.12257099896669388
-0.018787618726491928 -1.5602571881550827e-16 -0.04789018630981445
0.14080186188220978 -3.066942189374291e-16 -0.09413603693246841
-0.06626731157302856 -6.218606731715325e-16 -0.19087253510951996
-0.854617714881897 -1.456979043231517e-15 -0.4472019076347351
-1.910293102264404 -2.5755394131564977e-15 -0.7905303239822388
-3.0949299335479736 -3.562508344286076e-15 -1.093468427658081
-4.519129276275635 -4.6264825229582005e-15 -1.4200422763824463
-5.7714457511901855 -5.445105561645118e-15 -1.671308636665344
-6.718727111816406 -5.927602209939007e-15 -1.8194050788879392
-7.493959426879883 -6.306206032087417e-15 -1.9356129169464114
-8.037158966064453 -6.451594155285935e-15 -1.9802380800247192
-7.676405906677247 -5.9992777144191905e-15 -1.841404914855957
-7.654661178588866 -5.689913753511135e-15 -1.7464494705200193
-7.81288194656372 -5.514174322230128e-15 -1.6925084590911867
-7.7988481521606445 -5.280506731202873e-15 -1.6207870244979858
-8.101669311523438 -5.199350810460544e-15 -1.5958771705627441
-8.333808898925781 -5.1198190753945754e-15 -1.5714659690856934
-8.55000114440918 -5.106897587784211e-15 -1.5674998760223389
-8.950729370117188 -5.0844393562207105e-15 -1.5606064796447754
-9.257866859436035 -4.916565472887907e-15 -1.5090795755386353
-9.318117141723633 -4.7338287024296325e-15 -1.4529908895492554
-9.515129089355469 -4.642234794678289e-15 -1.4248772859573364
-9.715404510498047 -4.5301329487244975e-15 -1.390468955039978
-9.967231750488281 -4.44302111581355e-15 -1.363731026649475
-10.265363693237305 -4.3431982829796306e-15 -1.3330916166305542
-10.537720680236816 -4.210684637062905e-15 -1.2924182415008545
-10.841957092285156 -4.07259327918851e-15 -1.2500327825546265
-11.163456916809082 -3.926058696895884e-15 -1.205055832862854
-11.281540870666504 -3.7523809438084945e-15 -1.1517475843429565
-11.821974754333496 -3.665482563200255e-15 -1.1250749826431274
-11.857275009155273 -3.462497258379629e-15 -1.062771201133728
-11.873233795166016 -3.323879046012042e-15 -1.0202239751815796
-12.254548072814941 -3.153997906352483e-15 -0.9680811166763306
-12.174057006835938 -3.0521093719184473e-15 -0.9368076920509338
-12.04638957977295 -2.998433529325653e-15 -0.9203325510025024
-11.872211456298828 -2.9562764877825694e-15 -0.9073929190635682
-11.657729148864746 -2.8878209790513714e-15 -0.8863813877105712
-11.253491401672363 -2.82091278775657e-15 -0.8658446669578552
-10.931894302368164 -2.7427269880437883e-15 -0.8418465256690979
-10.26661205291748 -2.651312016002552e-15 -0.8137878179550171
-9.264300346374512 -2.9984004950407094e-15 -0.9203224182128906
-7.927078723907471 -3.213141346619804e-15 -0.9862344861030578
-6.82179069519043 -3.783774102416107e-15 -1.1613832712173462
-5.692345142364502 -3.984850406731858e-15 -1.2231011390686035
-4.842989921569824 -4.113302953182973e-15 -1.2625280618667603
-3.8768081665039062 -4.255859445238819e-15 -1.306283950805664
-2.9515247344970703 -4.3362513422627244e-15 -1.330959439277649
-1.5928376913070679 -4.523182196359329e-15 -1.3883354663848877