# vtk DataFile Version 4.0
 
ASCII
DATASET UNSTRUCTURED_GRID
POINTS 51 float
0.0029719590675085783 0.0032430519349873066 -0.006862869020551443
0.002608868759125471 0.006828350480645896 -0.008926404640078545
0.0023370522540062666 0.010159444063901901 -0.011278274469077587
0.0019680906552821398 0.01335808355361223 -0.01370760053396225
0.0014949451433494687 0.016435369849205017 -0.016195153817534447
0.001041901996359229 0.019495459273457527 -0.018560530617833138
0.0007715190295130014 0.02271091192960739 -0.020504852756857872
0.0007508308626711369 0.02596884034574032 -0.022223640233278275
0.0009129723184742035 0.029093649238348007 -0.02402103878557682
0.0011547972681000829 0.03221571817994118 -0.02567121759057045
0.0014014894841238856 0.035283252596855164 -0.02726389840245247
0.0016095859464257958 0.03822872042655945 -0.02891603857278824
0.0017607304034754632 0.041092243045568466 -0.030558146536350247
0.0018556131981313229 0.04391731694340706 -0.032114893198013306
0.0019071486312896013 0.046700093895196915 -0.033592939376831055
0.0019331572111696005 0.0494125671684742 -0.03504079207777977
0.0019505200907588003 0.052028913050889976 -0.03650318458676338
0.0019713775254786015 0.0545434057712555 -0.0379900261759758
0.002001940505579114 0.056973788887262344 -0.03947058692574501
0.0020439913496375084 0.059345558285713196 -0.040900710970163345
0.0020965919829905033 0.06167549639940261 -0.042251333594322205
0.002157271606847644 0.06396409869194031 -0.04352157562971115
0.0022228893358260393 0.06620126217603683 -0.04472896456718445
0.0022902570199221373 0.0683751255273819 -0.045894019305706024
0.0023565629962831736 0.07047682255506516 -0.04703212156891823
0.0024196337908506393 0.07250114530324936 -0.04815227538347244
0.002478071954101324 0.07444634288549423 -0.049257516860961914
0.002531298203393817 0.07631368935108185 -0.05034562572836876
0.0025795181281864643 0.07810701429843903 -0.05140999332070351
0.0026236188132315874 0.07983200997114182 -0.052440755069255836
0.002664896659553051 0.08149494975805283 -0.05342702940106392
0.002704667393118143 0.08310094475746155 -0.05435997620224953
0.0027439913246780634 0.08465280383825302 -0.055234722793102264
0.0027835292275995016 0.0861506313085556 -0.0560511015355587
0.0028234992641955614 0.08759190142154694 -0.05681348219513893
0.0028637030627578497 0.08897189795970917 -0.05753002688288689
0.0029035976622253656 0.09028434008359909 -0.05821160599589348
0.0029423937667161226 0.09152259677648544 -0.05886973813176155
0.0029791651759296656 0.09268241375684738 -0.05951174721121787
0.0030129586812108755 0.09376432746648788 -0.060136739164590836
0.003042890690267086 0.09477382898330688 -0.060735195875167854
0.003068230813369155 0.09572018682956696 -0.06129105016589164
0.0030884635634720325 0.09661486744880676 -0.06178445369005203
0.0031033288687467575 0.09747201204299927 -0.062190912663936615
0.003112840000540018 0.09830909222364426 -0.06248016282916069
0.0031172798480838537 0.09914393723011017 -0.06262131780385971
0.0031171797309070826 0.09999000281095505 -0.0625910833477974
0.0031132809817790985 0.10085199773311615 -0.06238129362463951
0.0031064841896295547 0.10172314941883087 -0.062003690749406815
0.0030977895949035883 0.1025845631957054 -0.0614909753203392
0.003088234690949321 0.10340680181980133 -0.06089416891336441

CELLS 50 150
2 0 1
2 1 2
2 2 3
2 3 4
2 4 5
2 5 6
2 6 7
2 7 8
2 8 9
2 9 10
2 10 11
2 11 12
2 12 13
2 13 14
2 14 15
2 15 16
2 16 17
2 17 18
2 18 19
2 19 20
2 20 21
2 21 22
2 22 23
2 23 24
2 24 25
2 25 26
2 26 27
2 27 28
2 28 29
2 29 30
2 30 31
2 31 32
2 32 33
2 33 34
2 34 35
2 35 36
2 36 37
2 37 38
2 38 39
2 39 40
2 40 41
2 41 42
2 42 43
2 43 44
2 44 45
2 45 46
2 46 47
2 47 48
2 48 49
2 49 50

CELL_TYPES 50
4
4
4
4
4
4
4
4
4
4
4
4
4
4
4
4
4
4
4
4
4
4
4
4
4
4
4
4
4
4
4
4
4
4
4
4
4
4
4
4
4
4
4
4
4
4
4
4
4
4

POINT_DATA 51

SCALARS zone float
LOOKUP_TABLE default
1.0
1.0
1.0
1.0
1.0
1.0
1.0
1.0
1.0
1.0
1.0
1.0
1.0
1.0
1.0
1.0
1.0
1.0
1.0
1.0
1.0
1.0
1.0
1.0
1.0
1.0
1.0
1.0
1.0
1.0
1.0
1.0
1.0
1.0
1.0
1.0
1.0
1.0
1.0
1.0
1.0
1.0
1.0
1.0
1.0
1.0
1.0
1.0
1.0
1.0
1.0

VECTORS normals float
-0.00018154516874346882 0.0017926492728292942 -0.001031767693348229
-0.00031745340675115585 0.0034581958316266537 -0.002207702724263072
-0.0003203890810254961 0.0032648663036525245 -0.0023905979469418526
-0.00042105361353605986 0.003137962892651558 -0.0024584399070590734
-0.0004630943294614554 0.0030686885584145784 -0.0024264652747660875
-0.00036171305691823363 0.003137771273031831 -0.0021548490040004253
-0.0001455355522921309 0.0032366903033107515 -0.001831554574891925
7.072663720464334e-5 0.0031913684215396647 -0.0017580930143594742
0.00020198317361064258 0.0031234389171004295 -0.0017237889114767315
0.00024425858282484114 0.0030948009807616472 -0.0016214300412684681
0.0002273943391628563 0.003006499959155917 -0.0016224106075242162
0.00017962048877961934 0.0029044966213405132 -0.0016471240669488907
0.0001230136549565941 0.0028442994225770235 -0.001599427196197212
7.320909935515374e-5 0.0028039254248142242 -0.0015173957217484713
3.8772002881160006e-5 0.002747625345364213 -0.0014629487413913012
2.1685751562472433e-5 0.002664408180862665 -0.0014551238855347037
1.9110158973489888e-5 0.0025654183700680733 -0.001474617631174624
2.5710261979838833e-5 0.0024724395480006933 -0.0014837003545835614
3.630685023381375e-5 0.0024010767228901386 -0.0014553428627550602
4.732568413601257e-5 0.0023508521262556314 -0.0013903731014579535
5.6640183174749836e-5 0.002309271600097418 -0.0013104313984513283
6.314866186585277e-5 0.002262883586809039 -0.0012388163013383746
6.649269198533148e-5 0.0022055136505514383 -0.0011862224200740457
6.683685205643997e-5 0.0021377806551754475 -0.0011515782680362463
6.468839274020866e-5 0.002063007792457938 -0.0011291272239759564
6.0754482547054074e-5 0.001984758535400033 -0.0011126975296065211
5.583223173744046e-5 0.0019062740029767158 -0.0010966750560328364
5.072306885267608e-5 0.0018303378019481897 -0.001076239044778049
4.616025398718193e-5 0.001759157283231616 -0.0010475660674273968
4.268924021744169e-5 0.0016939667984843254 -0.0010085178073495626
4.052436997881159e-5 0.001634469022974372 -0.0009596095187589526
3.9547361666336656e-5 0.001578928786329925 -0.0009038466960191727
3.943082629120909e-5 0.0015248438576236367 -0.000845563132315874
3.97539661207702e-5 0.0014695472782477736 -0.0007893782458268106
4.0087012166623026e-5 0.0014106306480243802 -0.0007394633139483631
4.004923903266899e-5 0.001346220844425261 -0.00069906294811517
3.934526102966629e-5 0.0012753495248034596 -0.0006698542856611311
3.778377140406519e-5 0.00119903648737818 -0.0006500710733234882
3.528250090312213e-5 0.001120867789722979 -0.0006335016223601997
3.186270623700693e-5 0.0010457062162458897 -0.0006117239827290177
2.7636049708235078e-5 0.0009779297979548573 -0.000577154743950814
2.2786460249335505e-5 0.0009205203386954963 -0.000524629489518702
1.7549085896462202e-5 0.0008759119664318861 -0.0004499320057220757
1.21881839731941e-5 0.0008471122710034251 -0.000347853172570467
6.97543964633951e-6 0.0008359634666703641 -0.00021520198788493874
2.169919071093318e-6 0.0008404550608247519 -5.5460972362197936e-5
-1.999401547436719e-6 0.0008540293783880769 0.00012001192953903227
-5.347871592675801e-6 0.0008665714412927628 0.0002936967939604074
-7.745714356133249e-6 0.0008662831969559193 0.0004451589775271714
-9.124661119130906e-6 0.0008418272482231259 0.0005547613836824894
-4.777432877745014e-6 0.00041111797327175736 0.00029840448405593634

CELL_DATA 50

VECTORS liftinglineloading               float
0.0405866913497448 0.024281691759824753 0.052072256803512566
-0.017331570386886597 0.0013201822293922305 0.002831139834597707
0.05772009864449501 0.03376566246151924 0.0724106952548027
-0.008118564262986183 0.05860698223114014 0.12568308413028717
-0.4492867588996887 0.1304377168416977 0.2797245979309082
-1.232707142829895 0.22726196050643918 0.48736485838890076
-2.29936146736145 0.3463027775287628 0.742648720741272
-3.4450325965881348 0.4667100608348847 1.000862956047058
-4.850327968597412 0.5998168587684631 1.286311388015747
-6.106207847595215 0.7059626579284668 1.5139418840408325
-7.103659152984619 0.776788592338562 1.6658285856246946
-7.8667922019958505 0.8222867250442504 1.7633996009826658
-8.363395690917969 0.8389109969139098 1.7990504503250122
-8.079052925109863 0.7867584824562073 1.6872090101242068
-8.177613258361816 0.7553473711013794 1.6198476552963257
-8.408523559570312 0.7350679636001587 1.5763583183288574
-8.420441627502441 0.7024712562561035 1.5064544677734375
-8.645295143127441 0.684143602848053 1.4671506881713867
-8.821763038635254 0.6708873510360718 1.4387226104736328
-9.125535011291504 0.672889232635498 1.4430155754089355
-9.4421968460083 0.6651504635810852 1.4264198541641235
-9.663118362426758 0.641624927520752 1.3759691715240479
-9.613554000854492 0.6154148578643799 1.3197613954544067
-9.79804801940918 0.6018263697624207 1.2906208038330078
-9.933869361877441 0.5856913328170776 1.256019115447998
-10.138900756835938 0.5736430883407593 1.2301815748214722
-10.414143562316895 0.560340404510498 1.2016538381576538
-10.691727638244629 0.5433186292648315 1.1651506423950195
-11.008045196533203 0.5252269506454468 1.1263529062271118
-11.356584548950195 0.5056777596473694 1.0844295024871826
-11.500784873962402 0.4823209941387176 1.034340739250183
-12.067676544189453 0.46954655647277826 1.0069458484649658
-12.101167678833008 0.4420801103115082 0.9480438828468323
-12.155426025390625 0.4236353039741516 0.9084888696670533
-12.181492805480957 0.40850782394409185 0.8760478496551514
-12.153708457946777 0.3944036364555359 0.845801293849945
-12.074393272399902 0.38682129979133606 0.8295409083366394
-11.94429874420166 0.38093411922454834 0.8169158697128296
-11.790047645568848 0.3714951276779175 0.7966738939285278
-11.413838386535645 0.3628632426261902 0.7781627178192139
-11.117595672607422 0.3528086543083191 0.756600558757782
-10.466185569763184 0.3422048091888428 0.7338605523109436
-9.462322235107422 0.38791289925575256 0.8318819403648376
-8.093109130859375 0.41672265529632563 0.8936646580696106
-6.984060287475586 0.4925099015235901 1.056190848350525
-5.8508806228637695 0.5196889638900757 1.1144765615463257
-4.997531890869141 0.5369449853897095 1.1514822244644165
-4.071537494659424 0.5573205351829529 1.1951777935028076
-3.100438117980957 0.5676465034484863 1.2173218727111816
-1.691899299621582 0.592737078666687 1.27112877368927