# vtk DataFile Version 4.0
 
ASCII
DATASET UNSTRUCTURED_GRID
POINTS 51 float
0.0029719590675085783 0.007321756798774003 0.002002058085054159
0.002608868759125471 0.009976522997021675 0.005174558609724045
0.0023370522540062666 0.012871101498603819 0.008046647533774376
0.0019680906552821398 0.01581895723938942 0.010774844326078892
0.0014949451433494687 0.018803086131811142 0.013373420573771
0.001041901996359229 0.021663906052708626 0.015976278111338615
0.0007715190295130014 0.024137046188116074 0.018805252388119698
0.0007508308626711369 0.02639545500278473 0.02171522192656994
0.0009129723184742035 0.02870816364884377 0.024480441585183144
0.0011547972681000829 0.030875414609909054 0.02726852893829346
0.0014014894841238856 0.03297657147049904 0.030012892559170723
0.0016095859464257958 0.035115085542201996 0.03262672200798988
0.0017607304034754632 0.037229493260383606 0.03516159579157829
0.0018556131981313229 0.03925316035747528 0.03767342120409012
0.0019071486312896013 0.04119197279214859 0.0401572622358799
0.0019331572111696005 0.043088845908641815 0.0425771102309227
0.0019505200907588003 0.04498334601521492 0.04489976540207863
0.0019713775254786015 0.04688423499464989 0.047117870301008224
0.002001940505579114 0.04876433312892914 0.04925423488020897
0.0020439913496375084 0.0505845881998539 0.051341630518436425
0.0020965919829905033 0.052319277077913284 0.05340163782238961
0.002157271606847644 0.05396763607859611 0.05543490126729012
0.0022228893358260393 0.055545158684253686 0.057428412139415734
0.0022902570199221373 0.05707000195980073 0.059366945177316666
0.0023565629962831736 0.058555770665407174 0.06123907864093781
0.0024196337908506393 0.06001042574644089 0.06303813308477402
0.002478071954101324 0.06143665686249734 0.06476185470819473
0.002531298203393817 0.06283249706029892 0.06641189008951187
0.0025795181281864643 0.06419210135936737 0.06799314171075821
0.0026236188132315874 0.06550674885511398 0.06951294094324112
0.002664896659553051 0.06676680594682693 0.07097934931516647
0.002704667393118143 0.06796445697546005 0.07239894568920135
0.0027439913246780634 0.06909538805484772 0.07377532869577408
0.0027835292275995016 0.07015945762395859 0.07510863989591599
0.0028234992641955614 0.07116053253412247 0.07639562338590622
0.0028637030627578497 0.07210582494735718 0.07763022929430008
0.0029035976622253656 0.07300495356321335 0.0788043811917305
0.0029423937667161226 0.07386810332536697 0.07990953326225281
0.0029791651759296656 0.07470176368951797 0.08094025403261185
0.0030129586812108755 0.07550512999296188 0.08189719915390015
0.003042890690267086 0.07626979798078537 0.08278744667768478
0.003068230813369155 0.07698153704404831 0.08362290263175964
0.0030884635634720325 0.07762280851602554 0.08441831171512604
0.0031033288687467575 0.07817193120718002 0.08519185334444046
0.003112840000540018 0.0786021426320076 0.08596599102020264
0.0031172798480838537 0.07888612151145935 0.0867636427283287
0.0031171797309070826 0.07900326699018478 0.08760210126638412
0.0031132809817790985 0.07894634455442429 0.08848743140697479
0.0031064841896295547 0.07872575521469116 0.08941091597080231
0.0030977895949035883 0.07837041467428207 0.09034828096628189
0.003088234690949321 0.07792545109987259 0.09126165509223938

CELLS 50 150
2 0 1
2 1 2
2 2 3
2 3 4
2 4 5
2 5 6
2 6 7
2 7 8
2 8 9
2 9 10
2 10 11
2 11 12
2 12 13
2 13 14
2 14 15
2 15 16
2 16 17
2 17 18
2 18 19
2 19 20
2 20 21
2 21 22
2 22 23
2 23 24
2 24 25
2 25 26
2 26 27
2 27 28
2 28 29
2 29 30
2 30 31
2 31 32
2 32 33
2 33 34
2 34 35
2 35 36
2 36 37
2 37 38
2 38 39
2 39 40
2 40 41
2 41 42
2 42 43
2 43 44
2 44 45
2 45 46
2 46 47
2 47 48
2 48 49
2 49 50

CELL_TYPES 50
4
4
4
4
4
4
4
4
4
4
4
4
4
4
4
4
4
4
4
4
4
4
4
4
4
4
4
4
4
4
4
4
4
4
4
4
4
4
4
4
4
4
4
4
4
4
4
4
4
4

POINT_DATA 51

SCALARS zone float
LOOKUP_TABLE default
1.0
1.0
1.0
1.0
1.0
1.0
1.0
1.0
1.0
1.0
1.0
1.0
1.0
1.0
1.0
1.0
1.0
1.0
1.0
1.0
1.0
1.0
1.0
1.0
1.0
1.0
1.0
1.0
1.0
1.0
1.0
1.0
1.0
1.0
1.0
1.0
1.0
1.0
1.0
1.0
1.0
1.0
1.0
1.0
1.0
1.0
1.0
1.0
1.0
1.0
1.0

VECTORS normals float
-0.00018154516874346882 0.0013273830991238356 0.0015862502623349428
-0.00031745340675115585 0.0027746723499149084 0.0030222944915294647
-0.0003203890810254961 0.0029212175868451595 0.0028001428581774235
-0.00042105361353605986 0.002965992083773017 0.002663386519998312
-0.0004630943294614554 0.002922473940998316 0.002600716892629862
-0.00036171305691823363 0.0026669802609831095 0.002715915907174349
-0.0001455355522921309 0.0023657744750380516 0.002869471674785018
7.072663720464334e-5 0.0022855589631944895 0.0028375948313623667
0.00020198317361064258 0.0022399802692234516 0.00277665420435369
0.00024425858282484114 0.0021342034451663494 0.0027662257198244333
0.0002273943391628563 0.0021198356989771128 0.0026790958363562822
0.00017962048877961934 0.0021264611277729273 0.0025743506848812103
0.0001230136549565941 0.002069035777822137 0.002523350529372692
7.320909935515374e-5 0.0019812395330518484 0.002497834386304021
3.8772002881160006e-5 0.0019178434740751984 0.0024518442805856466
2.1685751562472433e-5 0.0018956869607791307 0.0023712501861155033
1.9110158973489888e-5 0.0018976951250806453 0.002270379336550832
2.5710261979838833e-5 0.0018904942553490402 0.002177235670387745
3.630685023381375e-5 0.0018501755548641083 0.002111881272867322
4.732568413601257e-5 0.0017774713924154641 0.0020737017039209604
5.6640183174749836e-5 0.0016915238229557872 0.002046634443104267
6.314866186585277e-5 0.0016129415016621351 0.002013387158513069
6.649269198533148e-5 0.0015511844540014863 0.0019660217221826315
6.683685205643997e-5 0.0015053049428388476 0.001905333367176354
6.468839274020866e-5 0.0014702107291668653 0.0018355951178818941
6.0754482547054074e-5 0.0014404428657144308 0.0017613875679671764
5.583223173744046e-5 0.0014110351912677288 0.001686877803876996
5.072306885267608e-5 0.0013777234125882387 0.0016156439669430254
4.616025398718193e-5 0.001337125664576888 0.0015505237970501184
4.268924021744169e-5 0.001287350314669311 0.0014931043842807412
4.052436997881159e-5 0.0012288534780964255 0.0014430033043026924
3.9547361666336656e-5 0.0011642933823168278 0.0013979899231344461
3.943082629120909e-5 0.001097503467462957 0.0013548475690186024
3.97539661207702e-5 0.0010325700277462602 0.0013101474614813924
4.0087012166623026e-5 0.0009731826721690594 0.0012607935350388288
4.004923903266899e-5 0.0009222113876603544 0.0012043777387589216
3.934526102966629e-5 0.0008811398292891682 0.0011396551271900535
3.778377140406519e-5 0.0008484055288136005 0.0010679367696866393
3.528250090312213e-5 0.000818513974081725 0.0009938329458236694
3.186270623700693e-5 0.0007840155158191919 0.0009235948091372846
2.7636049708235078e-5 0.0007382021867670119 0.0008628509822301567
2.2786460249335505e-5 0.0006765058496966958 0.0008154346141964196
1.7549085896462202e-5 0.000595197023358196 0.0007844750070944428
1.21881839731941e-5 0.0004896679893136024 0.000773838663008064
6.97543964633951e-6 0.00035709611256606877 0.0007858938770368695
2.169919071093318e-6 0.00020056188805028796 0.0008180559379979969
-1.999401547436719e-6 3.011197259183973e-5 0.0008618946303613485
-5.347871592675801e-6 -0.00013875632430426776 0.0009044061880558729
-7.745714356133249e-6 -0.00028796750120818615 0.0009304234408773482
-9.124661119130906e-6 -0.0004001515335403382 0.0009253713069483638
-4.777432877745014e-6 -0.0002224811614723876 0.0004566895659081638

CELL_DATA 50

VECTORS liftinglineloading               float
0.12168112397193907 -0.09502637386322021 0.06653818488121033
0.18192733824253082 -0.16262678802013397 0.11387249827384949
-0.059920355677604675 -0.02962901070713997 0.02074645645916462
0.13062261044979095 -0.06395398080348969 0.04478106275200844
0.07368031144142151 -0.10875896364450453 0.07615384459495544
-0.5756612420082092 -0.29452136158943176 0.20622608065605164
-1.546020269393921 -0.5957009196281433 0.4171142876148224
-2.718238353729248 -0.863749921321869 0.6048042178153992
-4.056346416473389 -1.1296364068984985 0.7909799218177795
-5.226963996887207 -1.3313041925430298 0.932189166545868
-6.050549030303955 -1.4324257373809814 1.002995252609253
-6.794589042663574 -1.5314760208129883 1.072351098060608
-7.3705096244812 -1.5719276666641235 1.1006755828857422
-7.038707256317139 -1.4607175588607788 1.0228054523468018
-6.908978462219238 -1.3671256303787231 0.9572716355323793
-7.076351642608642 -1.3280991315841675 0.9299449920654297
-7.05822229385376 -1.2782810926437378 0.8950620293617247
-7.460728645324708 -1.2780694961547852 0.8949138522148132
-7.644713401794434 -1.2585253715515137 0.8812289834022522
-7.964628219604493 -1.2576385736465454 0.8806080222129822
-8.39508056640625 -1.2596491575241089 0.8820158243179321
-8.794144630432129 -1.2235122919082642 0.8567125201225281
-8.981467247009277 -1.1851119995117188 0.8298243284225464
-9.297408103942871 -1.1671212911605835 0.8172271847724915
-9.61231517791748 -1.1427569389343262 0.8001670241355896
-9.921879768371582 -1.1227236986160278 0.7861395478248596
-10.298663139343262 -1.0976719856262207 0.768598198890686
-10.643638610839844 -1.0635472536087036 0.7447037696838379
-11.016719818115234 -1.027466893196106 0.7194401025772095
-11.401083946228027 -0.9885337352752687 0.6921787858009338
-11.555780410766602 -0.9424228072166442 0.6598915457725525
-12.120586395263672 -0.9174419045448304 0.6423997282981873
-12.17405891418457 -0.8628138899803163 0.604148805141449
-12.205002784729004 -0.8273626565933228 0.5793256163597107
-12.208076477050781 -0.7983089089393616 0.5589818954467773
-12.16043472290039 -0.7709945440292358 0.5398561954498291
-12.066672325134277 -0.7560697197914124 0.5294057130813599
-11.941282272338867 -0.7444345951080322 0.5212587118148804
-11.762222290039062 -0.7262126207351685 0.5084995627403259
-11.390249252319336 -0.7087355256080627 0.4962619543075562
-11.029074668884277 -0.6899511218070984 0.4831089675426483
-10.395528793334961 -0.6673389673233032 0.4672757685184478
-9.414207458496094 -0.7553809881210327 0.5289234519004822
-8.100116729736328 -0.8109487295150757 0.5678324103355408
-7.013214111328125 -0.958510160446167 0.6711560487747192
-5.900925159454346 -1.0122392177581787 0.7087775468826294
-5.0685811042785645 -1.0468817949295044 0.7330345511436462
-4.112955570220947 -1.0853588581085205 0.7599765062332153
-3.1860172748565674 -1.1087188720703125 0.7763333320617676
-1.7632859945297241 -1.1588548421859741 0.8114388585090637