# vtk DataFile Version 4.0
 
ASCII
DATASET UNSTRUCTURED_GRID
POINTS 51 float
0.0029719590675085783 3.882946111843921e-5 -0.0075904447585344315
0.002608868759125471 0.0024161257315427065 -0.010975855402648449
0.0023370522540062666 0.0044411784037947655 -0.014515154995024204
0.0019680906552821398 0.006313452497124672 -0.018068674951791763
0.0014949451433494687 0.008051135577261448 -0.021623682230710983
0.001041901996359229 0.00982486829161644 -0.025060690939426422
0.0007715190295130014 0.011917351745069027 -0.028181754052639008
0.0007508308626711369 0.014143646694719791 -0.031116364523768425
0.0009129723184742035 0.01621607132256031 -0.034065961837768555
0.0011547972681000829 0.01834823191165924 -0.0368809774518013
0.0014014894841238856 0.020455263555049896 -0.03962082788348198
0.0016095859464257958 0.022426540032029152 -0.042362987995147705
0.0017607304034754632 0.02432779036462307 -0.045061420649290085
0.0018556131981313229 0.02623026631772518 -0.047666240483522415
0.0019071486312896013 0.028127670288085938 -0.050181854516267776
0.0019331572111696005 0.029974117875099182 -0.052640397101640694
0.0019505200907588003 0.031727295368909836 -0.05507148802280425
0.0019713775254786015 0.03337783366441727 -0.05748169496655464
0.002001940505579114 0.034954797476530075 -0.05985066294670105
0.0020439913496375084 0.036499954760074615 -0.06214915215969085
0.0020965919829905033 0.03804079443216324 -0.06435789912939072
0.002157271606847644 0.0395781509578228 -0.06647633761167526
0.0022228893358260393 0.041095443069934845 -0.0685160681605339
0.0022902570199221373 0.04257326200604439 -0.07049068808555603
0.0023565629962831736 0.043997060507535934 -0.07241036742925644
0.0024196337908506393 0.0453583225607872 -0.07428108900785446
0.002478071954101324 0.046654172241687775 -0.07610485702753067
0.002531298203393817 0.04788671433925629 -0.07788018882274628
0.0025795181281864643 0.04906219244003296 -0.07960273325443268
0.0026236188132315874 0.050189949572086334 -0.08126593381166458
0.002664896659553051 0.05128026753664017 -0.08286258578300476
0.002704667393118143 0.05234151706099511 -0.08438684791326523
0.0027439913246780634 0.05337829515337944 -0.08583547919988632
0.0027835292275995016 0.05439076945185662 -0.08720838278532028
0.0028234992641955614 0.05537480860948563 -0.08850843459367752
0.0028637030627578497 0.05632267892360688 -0.0897410586476326
0.0029035976622253656 0.05722411349415779 -0.09091344475746155
0.0029423937667161226 0.05806821212172508 -0.09203322231769562
0.0029791651759296656 0.0588480420410633 -0.0931052416563034
0.0030129586812108755 0.059564456343650825 -0.09412891417741776
0.003042890690267086 0.060226455330848694 -0.09509792923927307
0.003068230813369155 0.06084923446178436 -0.09600165486335754
0.0030884635634720325 0.061451569199562066 -0.0968269407749176
0.0031033288687467575 0.062056627124547965 -0.09755755960941315
0.003112840000540018 0.0626930370926857 -0.09817347675561905
0.0031172798480838537 0.06339000910520554 -0.09865422546863556
0.0031171797309070826 0.06416958570480347 -0.09898439049720764
0.0031132809817790985 0.06503947824239731 -0.09915854781866074
0.0031064841896295547 0.06598858535289764 -0.09918448328971863
0.0030977895949035883 0.06698597967624664 -0.09908386319875717
0.003088234690949321 0.06798340380191803 -0.09889046102762222

CELLS 50 150
2 0 1
2 1 2
2 2 3
2 3 4
2 4 5
2 5 6
2 6 7
2 7 8
2 8 9
2 9 10
2 10 11
2 11 12
2 12 13
2 13 14
2 14 15
2 15 16
2 16 17
2 17 18
2 18 19
2 19 20
2 20 21
2 21 22
2 22 23
2 23 24
2 24 25
2 25 26
2 26 27
2 27 28
2 28 29
2 29 30
2 30 31
2 31 32
2 32 33
2 33 34
2 34 35
2 35 36
2 36 37
2 37 38
2 38 39
2 39 40
2 40 41
2 41 42
2 42 43
2 43 44
2 44 45
2 45 46
2 46 47
2 47 48
2 48 49
2 49 50

CELL_TYPES 50
4
4
4
4
4
4
4
4
4
4
4
4
4
4
4
4
4
4
4
4
4
4
4
4
4
4
4
4
4
4
4
4
4
4
4
4
4
4
4
4
4
4
4
4
4
4
4
4
4
4

POINT_DATA 51

SCALARS zone float
LOOKUP_TABLE default
1.0
1.0
1.0
1.0
1.0
1.0
1.0
1.0
1.0
1.0
1.0
1.0
1.0
1.0
1.0
1.0
1.0
1.0
1.0
1.0
1.0
1.0
1.0
1.0
1.0
1.0
1.0
1.0
1.0
1.0
1.0
1.0
1.0
1.0
1.0
1.0
1.0
1.0
1.0
1.0
1.0
1.0
1.0
1.0
1.0
1.0
1.0
1.0
1.0
1.0
1.0

VECTORS normals float
-0.00018154516874346882 0.0011886481661349535 -0.0016927054384723306
-0.00031745340675115585 0.002201174385845661 -0.0034623548854142427
-0.0003203890810254961 0.0019486634992063046 -0.003546409774571657
-0.00042105361353605986 0.0018049787031486628 -0.0035542636178433895
-0.0004630943294614554 0.0017557076644152403 -0.0034960082266479735
-0.00036171305691823363 0.0019331079674884677 -0.003279035910964012
-0.0001455355522921309 0.002159389201551676 -0.0030278365593403578
7.072663720464334e-5 0.0021493597887456417 -0.002942104125395417
0.00020198317361064258 0.002102292375639081 -0.0028823057655245066
0.00024425858282484114 0.0021195963490754366 -0.002777433954179287
0.0002273943391628563 0.002039153827354312 -0.002741005038842559
0.00017962048877961934 0.001936263171955943 -0.002720294753089547
0.0001230136549565941 0.0019018634920939803 -0.002651626244187355
7.320909935515374e-5 0.0018999401945620777 -0.002560217631980777
3.8772002881160006e-5 0.0018719254294410348 -0.0024870785418897867
2.1685751562472433e-5 0.0017998118419200182 -0.0024448176845908165
1.9110158973489888e-5 0.0017018583603203297 -0.0024206500966101885
2.5710261979838833e-5 0.00161375233437866 -0.002389587229117751
3.630685023381375e-5 0.001561060082167387 -0.0023337274324148893
4.732568413601257e-5 0.0015429984778165817 -0.002253619022667408
5.6640183174749836e-5 0.0015390985645353794 -0.002163594588637352
6.314866186585277e-5 0.0015273225726559758 -0.002079084748402238
6.649269198533148e-5 0.0014975550584495068 -0.0020071729086339474
6.683685205643997e-5 0.001450809184461832 -0.0019471494015306234
6.468839274020866e-5 0.0013925301609560847 -0.0018952015088871121
6.0754482547054074e-5 0.0013285557506605983 -0.0018472416559234262
5.583223173744046e-5 0.0012641961220651865 -0.0017995514208450916
5.072306885267608e-5 0.0012040111469104886 -0.0017489379970356822
4.616025398718193e-5 0.0011516173835843801 -0.001692869234830141
4.268924021744169e-5 0.0011090373154729605 -0.0016299288254231215
4.052436997881159e-5 0.0010757835116237402 -0.001560457982122898
3.9547361666336656e-5 0.0010490133427083492 -0.0014864474069327116
3.943082629120909e-5 0.0010246273595839739 -0.001410767319612205
3.97539661207702e-5 0.0009982564952224493 -0.0013364771148189902
4.0087012166623026e-5 0.0009659548522904516 -0.0012663396773859859
4.004923903266899e-5 0.0009246537229046226 -0.0012025036849081516
3.934526102966629e-5 0.0008727665990591048 -0.0011460802052170038
3.778377140406519e-5 0.000811964157037437 -0.00109589914791286
3.528250090312213e-5 0.0007481218781322241 -0.0010478466283529997
3.186270623700693e-5 0.0006892059464007616 -0.0009963447228074074
2.7636049708235078e-5 0.0006423892336897552 -0.0009363708668388426
2.2786460249335505e-5 0.0006125567597337067 -0.0008645044872537256
1.7549085896462202e-5 0.0006036963313817978 -0.0007779533043503761
1.21881839731941e-5 0.0006207353435456753 -0.0006732671172358096
6.97543964633951e-6 0.0006666919216513634 -0.0005483326967805624
2.169919071093318e-6 0.0007382721523754299 -0.0004054563469253481
-1.999401547436719e-6 0.0008247327059507371 -0.00025216068024747074
-5.347871592675801e-6 0.0009095020941458642 -0.00010004923387896268
-7.745714356133249e-6 0.00097325153183192 3.7343936128308997e-5
-9.124661119130906e-6 0.0009974068962037563 0.00014701299369335175
-4.777432877745014e-6 0.0004987106076441705 9.670034341979772e-5

CELL_DATA 50

VECTORS liftinglineloading               float
0.037218473851680756 0.041358985006809235 0.034704308956861496
-0.012601654045283794 0.005753334611654282 0.004827620927244425
0.054676562547683716 0.06315282732248306 0.05299151316285134
-0.029841853305697445 0.11160854250192642 0.093650683760643
-0.4958797991275788 0.24630121886730194 0.20667125284671786
-1.278125286102295 0.42041727900505066 0.3527719974517822
-2.3550422191619873 0.6337960958480835 0.5318180918693542
-3.5147006511688232 0.8527647256851195 0.7155545353889465
-4.879101276397705 1.0919442176818848 0.9162499904632567
-6.203396797180176 1.288157343864441 1.0808923244476318
-7.225585460662842 1.4200929403305054 1.1915994882583618
-7.9971699714660645 1.5015043020248413 1.2599116563796997
-8.483620643615723 1.5300073623657227 1.283828616142273
-8.209488868713379 1.4371049404144287 1.2058742046356201
-8.310677528381348 1.3810919523239136 1.1588737964630127
-8.514612197875977 1.3420345783233643 1.1261006593704224
-8.501712799072266 1.2806401252746582 1.0745846033096313
-8.864593505859375 1.2515407800674438 1.050167441368103
-9.070956230163574 1.227689266204834 1.0301536321640015
-9.103446006774902 1.2215189933776855 1.024976134300232
-9.419652938842773 1.2079294919967651 1.013573169708252
-9.646822929382324 1.1653709411621094 0.9778623580932617
-9.612030029296875 1.1182714700698853 0.9383412003517151
-9.723243713378906 1.0936566591262817 0.9176868796348572
-9.8494873046875 1.065015435218811 0.8936540484428405
-10.051206588745117 1.0437453985214233 0.8758063912391663
-10.35148811340332 1.020400047302246 0.8562173247337341
-10.613079071044922 0.9892852306365967 0.8301088809967041
-10.91268539428711 0.956640899181366 0.8027170300483704
-11.242596626281738 0.9217333793640137 0.7734261155128479
-11.377230644226074 0.8800604343414307 0.7384583950042725
-11.941341400146484 0.8580318093299866 0.719974160194397
-12.02340316772461 0.8071913123130798 0.6773139238357544
-12.07085132598877 0.7734904289245605 0.6490355134010315
-12.091012954711914 0.7456681132316589 0.6256898641586304
-12.060667991638184 0.7194637656211853 0.6037017703056335
-11.978466987609863 0.7050651907920837 0.5916199088096619
-11.84477710723877 0.6939024329185486 0.5822532773017883
-11.666028022766113 0.6769090890884399 0.5679941177368164
-11.291179656982422 0.6606457829475403 0.5543476343154907
-10.974465370178223 0.6425805687904358 0.5391891002655029
-10.321711540222168 0.6216647028923035 0.5216386318206787
-9.323341369628906 0.7035560607910156 0.5903536677360535
-7.9908952713012695 0.7546989917755127 0.6332676410675049
-6.886028766632079 0.8901844620704651 0.7469534277915955
-5.89683723449707 0.943264365196228 0.791492760181427
-5.045276165008545 0.9748845696449279 0.8180252909660339
-4.072784423828125 1.0099543333053589 0.8474522829055786
-3.132345199584961 1.0308077335357666 0.8649503588676453
-1.714418649673462 1.0765613317489624 0.9033422470092773