# vtk DataFile Version 4.0
 
ASCII
DATASET UNSTRUCTURED_GRID
POINTS 51 float
0.0029719590675085783 0.004908788949251175 -0.005789658986032009
0.002608868759125471 0.008906004019081593 -0.006854937411844731
0.0023370522540062666 0.012732301838696003 -0.008264519274234772
0.0019680906552821398 0.016450705006718636 -0.009783199056982994
0.0014949451433494687 0.020066961646080017 -0.011389531195163727
0.001041901996359229 0.023634986951947212 -0.012882299721240996
0.0007715190295130014 0.02724410220980644 -0.013928149826824665
0.0007508308626711369 0.030835876241326332 -0.014745157212018965
0.0009129723184742035 0.03431940823793411 -0.015672551468014717
0.0011547972681000829 0.037762194871902466 -0.016458451747894287
0.0014014894841238856 0.041137419641017914 -0.01720292679965496
0.0016095859464257958 0.04441012814640999 -0.018036428838968277
0.0017607304034754632 0.047601088881492615 -0.01888144761323929
0.0018556131981313229 0.0507328175008297 -0.019653966650366783
0.0019071486312896013 0.05380332097411156 -0.020361412316560745
0.0019331572111696005 0.056798100471496575 -0.021057892590761185
0.0019505200907588003 0.05970378965139389 -0.021793296560645103
0.0019713775254786015 0.0625174269080162 -0.02257867529988289
0.002001940505579114 0.06524819135665894 -0.02337975613772869
0.0020439913496375084 0.06790929287672043 -0.024147294461727142
0.0020965919829905033 0.0705094039440155 -0.02484886161983013
0.002157271606847644 0.07304879277944565 -0.02548348531126976
0.0022228893358260393 0.07552221417427063 -0.026070715859532356
0.0022902570199221373 0.07792355120182037 -0.02663343399763107
0.0023565629962831736 0.08024819195270538 -0.02718879655003548
0.0024196337908506393 0.08249345421791077 -0.027746848762035366
0.002478071954101324 0.0846584290266037 -0.028310976922512058
0.002531298203393817 0.08674377202987671 -0.028878701850771907
0.0025795181281864643 0.08875147253274918 -0.029442658647894863
0.0026236188132315874 0.09068446606397629 -0.02999183721840382
0.002664896659553051 0.0925460085272789 -0.030514104291796684
0.002704667393118143 0.09433874487876892 -0.03099959716200829
0.0027439913246780634 0.09606412798166275 -0.03144288808107376
0.0027835292275995016 0.09772221744060516 -0.03184378147125244
0.0028234992641955614 0.09931168705224991 -0.03220715746283531
0.0028637030627578497 0.10083011537790298 -0.03254212066531181
0.0029035976622253656 0.10227425396442413 -0.032860785722732544
0.0029423937667161226 0.10364064574241638 -0.033176008611917496
0.0029791651759296656 0.10492711514234541 -0.033495958894491196
0.0030129586812108755 0.10613392293453217 -0.033819638192653656
0.003042890690267086 0.10726391524076462 -0.03413642197847366
0.003068230813369155 0.1083218902349472 -0.03442839905619621
0.0030884635634720325 0.10931379348039627 -0.034673433750867844
0.0031033288687467575 0.11024692654609679 -0.03484419733285904
0.003112840000540018 0.11113034933805464 -0.034906934946775436
0.0031172798480838537 0.11197327822446823 -0.03482721000909805
0.0031171797309070826 0.11278269439935686 -0.03457902744412422
0.0031132809817790985 0.11356101930141448 -0.0341532863676548
0.0031064841896295547 0.11430475115776063 -0.033563077449798584
0.0030977895949035883 0.11500411480665208 -0.03284488245844841
0.003088234690949321 0.11564386636018753 -0.03205559775233269

CELLS 50 150
2 0 1
2 1 2
2 2 3
2 3 4
2 4 5
2 5 6
2 6 7
2 7 8
2 8 9
2 9 10
2 10 11
2 11 12
2 12 13
2 13 14
2 14 15
2 15 16
2 16 17
2 17 18
2 18 19
2 19 20
2 20 21
2 21 22
2 22 23
2 23 24
2 24 25
2 25 26
2 26 27
2 27 28
2 28 29
2 29 30
2 30 31
2 31 32
2 32 33
2 33 34
2 34 35
2 35 36
2 36 37
2 37 38
2 38 39
2 39 40
2 40 41
2 41 42
2 42 43
2 43 44
2 44 45
2 45 46
2 46 47
2 47 48
2 48 49
2 49 50

CELL_TYPES 50
4
4
4
4
4
4
4
4
4
4
4
4
4
4
4
4
4
4
4
4
4
4
4
4
4
4
4
4
4
4
4
4
4
4
4
4
4
4
4
4
4
4
4
4
4
4
4
4
4
4

POINT_DATA 51

SCALARS zone float
LOOKUP_TABLE default
1.0
1.0
1.0
1.0
1.0
1.0
1.0
1.0
1.0
1.0
1.0
1.0
1.0
1.0
1.0
1.0
1.0
1.0
1.0
1.0
1.0
1.0
1.0
1.0
1.0
1.0
1.0
1.0
1.0
1.0
1.0
1.0
1.0
1.0
1.0
1.0
1.0
1.0
1.0
1.0
1.0
1.0
1.0
1.0
1.0
1.0
1.0
1.0
1.0
1.0
1.0

VECTORS normals float
-0.00018154516874346882 0.001998607302084565 -0.0005326392711140215
-0.00031745340675115585 0.003911756444722414 -0.0012374301441013813
-0.0003203890810254961 0.0037723509594798092 -0.00146413070615381
-0.00042105361353605986 0.0036673303693532944 -0.0015625059604644775
-0.0004630943294614554 0.0035921407397836442 -0.0015495504485443234
-0.00036171305691823363 0.0035885702818632126 -0.0012693093158304691
-0.0001455355522921309 0.003600443946197629 -0.0009314288035966456
7.072663720464334e-5 0.0035376532468944784 -0.0008722005877643824
0.00020198317361064258 0.003463159780949354 -0.000856646744068712
0.00024425858282484114 0.0034090052358806138 -0.0007651876658201218
0.0002273943391628563 0.003323966637253761 -0.0007889888947829604
0.00017962048877961934 0.0032318353187292814 -0.0008392605814151467
0.0001230136549565941 0.0031613444443792105 -0.0008087692549452187
7.320909935515374e-5 0.003101114882156253 -0.0007399824098683894
3.8772002881160006e-5 0.003032641252502799 -0.0007019622134976089
2.1685751562472433e-5 0.0029502343386411667 -0.00071594218024984
1.9110158973489888e-5 0.0028596629854291677 -0.0007603921694681048
2.5710261979838833e-5 0.002772203180938959 -0.0007932301377877593
3.630685023381375e-5 0.0026959325186908245 -0.0007843088824301958
4.732568413601257e-5 0.0026306037325412035 -0.0007345519843511283
5.6640183174749836e-5 0.002569749718531966 -0.000668096065055579
6.314866186585277e-5 0.0025064069777727127 -0.0006109272944740951
6.649269198533148e-5 0.00243737967684865 -0.0005749738775193691
6.683685205643997e-5 0.002362987957894802 -0.0005590408691205084
6.468839274020866e-5 0.002284951973706484 -0.0005567073822021484
6.0754482547054074e-5 0.0022051166743040085 -0.0005610900116153061
5.583223173744046e-5 0.002125159837305546 -0.0005659267771989107
5.072306885267608e-5 0.0020465217530727386 -0.0005658408044837415
4.616025398718193e-5 0.001970345387235284 -0.0005565676838159561
4.268924021744169e-5 0.0018972698599100113 -0.000535722472704947
4.052436997881159e-5 0.0018271410372108219 -0.0005038798553869128
3.9547361666336656e-5 0.0017590607749298215 -0.0004643920401576906
3.943082629120909e-5 0.001691733836196363 -0.0004220926493871957
3.97539661207702e-5 0.001623779768124223 -0.0003821339923888445
4.0087012166623026e-5 0.0015539517626166344 -0.0003491686366032809
4.004923903266899e-5 0.001481280312873423 -0.00032681532320566475
3.934526102966629e-5 0.0014052641345188022 -0.000316944788210094
3.778377140406519e-5 0.0013264310546219349 -0.0003175869642291218
3.528250090312213e-5 0.0012466374319046736 -0.0003218136553186923
3.186270623700693e-5 0.0011684003984555602 -0.00032023133826442063
2.7636049708235078e-5 0.0010939863277599216 -0.0003043818287551403
2.2786460249335505e-5 0.0010249384213238955 -0.00026850495487451553
1.7549085896462202e-5 0.0009625169332139194 -0.00020789825066458437
1.21881839731941e-5 0.0009082786273211241 -0.00011675158020807432
6.97543964633951e-6 0.0008631770615465939 8.494114808854647e-6
2.169919071093318e-6 0.0008261715993285179 0.00016395458078477532
-1.999401547436719e-6 0.0007938676862977444 0.00033696170430630445
-5.347871592675801e-6 0.0007610294269397855 0.0005079745315015316
-7.745714356133249e-6 0.0007215497316792607 0.0006542011396959424
-9.124661119130906e-6 0.0006695598713122308 0.0007537392666563392
-4.777432877745014e-6 0.00031987670809030533 0.00039464174187742174

CELL_DATA 50

VECTORS liftinglineloading               float
0.09288136661052704 0.01650679111480713 0.09361466765403748
0.11722644418478011 0.024360917508602142 0.13815763592720032
-0.02855789102613926 0.007727100048214197 0.04382256045937538
0.141314297914505 0.015783710405230522 0.0895138680934906
-0.05311622843146325 0.03204775229096413 0.18175184726715088
-0.8453180193901061 0.07702919840812683 0.43685427308082586
-1.9198665618896484 0.1372384876012802 0.7783181071281433
-3.12984037399292 0.190190851688385 1.0786259174346924
-4.5923333168029785 0.24740615487098694 1.4031100273132324
-5.893885612487793 0.2917487621307373 1.6545895338058474
-6.90967845916748 0.31930145621299744 1.810848593711853
-7.7230281829833975 0.3394591212272644 1.9251683950424194
-8.26329231262207 0.3468707799911499 1.967201828956604
-7.9249773025512695 0.323523610830307 1.834793567657471
-7.933806896209718 0.3081551492214203 1.7476346492767334
-8.072300910949707 0.2982428967952728 1.6914196014404297
-8.030420303344727 0.2847593128681183 1.6149502992630005
-8.263189315795898 0.278773695230484 1.58100426197052
-8.384418487548828 0.27312329411506653 1.5489591360092163
-8.577908515930176 0.27224114537239075 1.5439562797546387
-8.951035499572754 0.2707597613334656 1.5355548858642578
-9.237369537353516 0.26168546080589294 1.4840919971466064
-9.283466339111328 0.2519065737724304 1.428633213043213
-9.471532821655273 0.24704581499099731 1.4010664224624634
-9.667875289916992 0.24115729331970215 1.367671012878418
-9.917574882507324 0.23659731447696686 1.3418101072311401
-10.240765571594238 0.2314157336950302 1.312423825263977
-10.543766975402832 0.22433561086654663 1.2722704410552979
-10.878776550292969 0.2169121503829956 1.2301698923110962
-11.23080062866211 0.20896419882774356 1.1850948333740234
-11.373082160949707 0.19950605928897858 1.1314550638198853
-11.932191848754883 0.1945720762014389 1.1034730672836304
-11.986052513122559 0.1833668351173401 1.0399249792099
-12.020416259765625 0.17586113512516022 0.9973580241203308
-12.028042793273926 0.16966035962104797 0.9621917605400084
-11.983336448669434 0.16380354762077332 0.9289760589599609
-11.963464736938477 0.16009488701820374 0.9079432487487792
-11.80623722076416 0.15771853923797607 0.8944663405418395
-11.606962203979492 0.15398384630680084 0.8732858300209045
-11.2179594039917 0.1503385603427887 0.8526123762130737
-10.909509658813477 0.14611956477165222 0.8286852836608886
-10.25666332244873 0.1412074863910675 0.8008274435997009
-9.265201568603516 0.15969468653202057 0.905673623085022
-7.9379472732543945 0.1711726039648056 0.9707680940628051
-6.841389179229737 0.20170220732688904 1.1439100503921509
-5.720207691192627 0.2125663012266159 1.2055234909057617
-4.878657341003418 0.21956038475036624 1.24518883228302
-3.9187748432159424 0.22734056413173673 1.2893123626708984
-2.996236801147461 0.23185831308364868 1.3149337768554688
-1.6260849237442017 0.24206723272800446 1.3728314638137817