# vtk DataFile Version 4.0
 
ASCII
DATASET UNSTRUCTURED_GRID
POINTS 51 float
0.0029719590675085783 -0.0075904447585344315 -3.882946111843921e-5
0.002608868759125471 -0.010975855402648449 -0.0024161257315427065
0.0023370522540062666 -0.014515154995024204 -0.0044411784037947655
0.0019680906552821398 -0.018068674951791763 -0.006313452497124672
0.0014949451433494687 -0.021623682230710983 -0.008051135577261448
0.001041901996359229 -0.025060690939426422 -0.00982486829161644
0.0007715190295130014 -0.028181754052639008 -0.011917351745069027
0.0007508308626711369 -0.031116364523768425 -0.014143646694719791
0.0009129723184742035 -0.034065961837768555 -0.01621607132256031
0.0011547972681000829 -0.0368809774518013 -0.01834823191165924
0.0014014894841238856 -0.03962082788348198 -0.020455263555049896
0.0016095859464257958 -0.042362987995147705 -0.022426540032029152
0.0017607304034754632 -0.045061420649290085 -0.02432779036462307
0.0018556131981313229 -0.047666240483522415 -0.02623026631772518
0.0019071486312896013 -0.050181854516267776 -0.028127670288085938
0.0019331572111696005 -0.052640397101640694 -0.029974117875099182
0.0019505200907588003 -0.05507148802280425 -0.031727295368909836
0.0019713775254786015 -0.05748169496655464 -0.03337783366441727
0.002001940505579114 -0.05985066294670105 -0.034954797476530075
0.0020439913496375084 -0.06214915215969085 -0.036499954760074615
0.0020965919829905033 -0.06435789912939072 -0.03804079443216324
0.002157271606847644 -0.06647633761167526 -0.0395781509578228
0.0022228893358260393 -0.0685160681605339 -0.041095443069934845
0.0022902570199221373 -0.07049068808555603 -0.04257326200604439
0.0023565629962831736 -0.07241036742925644 -0.043997060507535934
0.0024196337908506393 -0.07428108900785446 -0.0453583225607872
0.002478071954101324 -0.07610485702753067 -0.046654172241687775
0.002531298203393817 -0.07788018882274628 -0.04788671433925629
0.0025795181281864643 -0.07960273325443268 -0.04906219244003296
0.0026236188132315874 -0.08126593381166458 -0.050189949572086334
0.002664896659553051 -0.08286258578300476 -0.05128026753664017
0.002704667393118143 -0.08438684791326523 -0.05234151706099511
0.0027439913246780634 -0.08583547919988632 -0.05337829515337944
0.0027835292275995016 -0.08720838278532028 -0.05439076945185662
0.0028234992641955614 -0.08850843459367752 -0.05537480860948563
0.0028637030627578497 -0.0897410586476326 -0.05632267892360688
0.0029035976622253656 -0.09091344475746155 -0.05722411349415779
0.0029423937667161226 -0.09203322231769562 -0.05806821212172508
0.0029791651759296656 -0.0931052416563034 -0.0588480420410633
0.0030129586812108755 -0.09412891417741776 -0.059564456343650825
0.003042890690267086 -0.09509792923927307 -0.060226455330848694
0.003068230813369155 -0.09600165486335754 -0.06084923446178436
0.0030884635634720325 -0.0968269407749176 -0.061451569199562066
0.0031033288687467575 -0.09755755960941315 -0.062056627124547965
0.003112840000540018 -0.09817347675561905 -0.0626930370926857
0.0031172798480838537 -0.09865422546863556 -0.06339000910520554
0.0031171797309070826 -0.09898439049720764 -0.06416958570480347
0.0031132809817790985 -0.09915854781866074 -0.06503947824239731
0.0031064841896295547 -0.09918448328971863 -0.06598858535289764
0.0030977895949035883 -0.09908386319875717 -0.06698597967624664
0.003088234690949321 -0.09889046102762222 -0.06798340380191803

CELLS 50 150
2 0 1
2 1 2
2 2 3
2 3 4
2 4 5
2 5 6
2 6 7
2 7 8
2 8 9
2 9 10
2 10 11
2 11 12
2 12 13
2 13 14
2 14 15
2 15 16
2 16 17
2 17 18
2 18 19
2 19 20
2 20 21
2 21 22
2 22 23
2 23 24
2 24 25
2 25 26
2 26 27
2 27 28
2 28 29
2 29 30
2 30 31
2 31 32
2 32 33
2 33 34
2 34 35
2 35 36
2 36 37
2 37 38
2 38 39
2 39 40
2 40 41
2 41 42
2 42 43
2 43 44
2 44 45
2 45 46
2 46 47
2 47 48
2 48 49
2 49 50

CELL_TYPES 50
4
4
4
4
4
4
4
4
4
4
4
4
4
4
4
4
4
4
4
4
4
4
4
4
4
4
4
4
4
4
4
4
4
4
4
4
4
4
4
4
4
4
4
4
4
4
4
4
4
4

POINT_DATA 51

SCALARS zone float
LOOKUP_TABLE default
1.0
1.0
1.0
1.0
1.0
1.0
1.0
1.0
1.0
1.0
1.0
1.0
1.0
1.0
1.0
1.0
1.0
1.0
1.0
1.0
1.0
1.0
1.0
1.0
1.0
1.0
1.0
1.0
1.0
1.0
1.0
1.0
1.0
1.0
1.0
1.0
1.0
1.0
1.0
1.0
1.0
1.0
1.0
1.0
1.0
1.0
1.0
1.0
1.0
1.0
1.0

VECTORS normals float
-0.00018154516874346882 -0.0016927054384723306 -0.0011886481661349535
-0.00031745340675115585 -0.0034623548854142427 -0.002201174385845661
-0.0003203890810254961 -0.003546409774571657 -0.0019486634992063046
-0.00042105361353605986 -0.0035542636178433895 -0.0018049787031486628
-0.0004630943294614554 -0.0034960082266479735 -0.0017557076644152403
-0.00036171305691823363 -0.003279035910964012 -0.0019331079674884677
-0.0001455355522921309 -0.0030278365593403578 -0.002159389201551676
7.072663720464334e-5 -0.002942104125395417 -0.0021493597887456417
0.00020198317361064258 -0.0028823057655245066 -0.002102292375639081
0.00024425858282484114 -0.002777433954179287 -0.0021195963490754366
0.0002273943391628563 -0.002741005038842559 -0.002039153827354312
0.00017962048877961934 -0.002720294753089547 -0.001936263171955943
0.0001230136549565941 -0.002651626244187355 -0.0019018634920939803
7.320909935515374e-5 -0.002560217631980777 -0.0018999401945620777
3.8772002881160006e-5 -0.0024870785418897867 -0.0018719254294410348
2.1685751562472433e-5 -0.0024448176845908165 -0.0017998118419200182
1.9110158973489888e-5 -0.0024206500966101885 -0.0017018583603203297
2.5710261979838833e-5 -0.002389587229117751 -0.00161375233437866
3.630685023381375e-5 -0.0023337274324148893 -0.001561060082167387
4.732568413601257e-5 -0.002253619022667408 -0.0015429984778165817
5.6640183174749836e-5 -0.002163594588637352 -0.0015390985645353794
6.314866186585277e-5 -0.002079084748402238 -0.0015273225726559758
6.649269198533148e-5 -0.0020071729086339474 -0.0014975550584495068
6.683685205643997e-5 -0.0019471494015306234 -0.001450809184461832
6.468839274020866e-5 -0.0018952015088871121 -0.0013925301609560847
6.0754482547054074e-5 -0.0018472416559234262 -0.0013285557506605983
5.583223173744046e-5 -0.0017995514208450916 -0.0012641961220651865
5.072306885267608e-5 -0.0017489379970356822 -0.0012040111469104886
4.616025398718193e-5 -0.001692869234830141 -0.0011516173835843801
4.268924021744169e-5 -0.0016299288254231215 -0.0011090373154729605
4.052436997881159e-5 -0.001560457982122898 -0.0010757835116237402
3.9547361666336656e-5 -0.0014864474069327116 -0.0010490133427083492
3.943082629120909e-5 -0.001410767319612205 -0.0010246273595839739
3.97539661207702e-5 -0.0013364771148189902 -0.0009982564952224493
4.0087012166623026e-5 -0.0012663396773859859 -0.0009659548522904516
4.004923903266899e-5 -0.0012025036849081516 -0.0009246537229046226
3.934526102966629e-5 -0.0011460802052170038 -0.0008727665990591048
3.778377140406519e-5 -0.00109589914791286 -0.000811964157037437
3.528250090312213e-5 -0.0010478466283529997 -0.0007481218781322241
3.186270623700693e-5 -0.0009963447228074074 -0.0006892059464007616
2.7636049708235078e-5 -0.0009363708668388426 -0.0006423892336897552
2.2786460249335505e-5 -0.0008645044872537256 -0.0006125567597337067
1.7549085896462202e-5 -0.0007779533043503761 -0.0006036963313817978
1.21881839731941e-5 -0.0006732671172358096 -0.0006207353435456753
6.97543964633951e-6 -0.0005483326967805624 -0.0006666919216513634
2.169919071093318e-6 -0.0004054563469253481 -0.0007382721523754299
-1.999401547436719e-6 -0.00025216068024747074 -0.0008247327059507371
-5.347871592675801e-6 -0.00010004923387896268 -0.0009095020941458642
-7.745714356133249e-6 3.7343936128308997e-5 -0.00097325153183192
-9.124661119130906e-6 0.00014701299369335175 -0.0009974068962037563
-4.777432877745014e-6 9.670034341979772e-5 -0.0004987106076441705

CELL_DATA 50

VECTORS liftinglineloading               float
0.04922457039356232 0.04168390482664108 -0.04967694729566574
-0.013669152744114399 0.004104803316295147 -0.00489191384986043
0.060398153960704797 0.04506528005003929 -0.053706705570220954
0.04399507865309715 0.07963212579488754 -0.09490187466144562
-0.314253032207489 0.173858180642128 -0.20719611644744873
-1.1119464635849 0.3277893662452698 -0.3906441628932953
-2.158958673477173 0.5178940296173096 -0.6172020435333252
-3.279350519180298 0.7013864517211914 -0.8358798027038574
-4.660104274749756 0.905034840106964 -1.0785784721374512
-5.938307762145996 1.068153738975525 -1.272976040840149
-6.919472694396973 1.1712771654129028 -1.395873785018921
-7.704063892364502 1.243952751159668 -1.4824851751327515
-8.241239547729492 1.2721046209335327 -1.5160353183746338
-7.954423427581788 1.1910467147827148 -1.4194341897964478
-8.043661117553711 1.141485571861267 -1.3603694438934326
-8.263081550598145 1.1102198362350464 -1.323108434677124
-8.317465782165527 1.0636394023895264 -1.2675961256027222
-8.675012588500977 1.041831374168396 -1.2416062355041504
-8.922785758972168 1.0236873626708984 -1.2199831008911133
-9.016727447509766 1.0198884010314941 -1.2154556512832642
-9.384541511535645 1.0102916955947876 -1.2040187120437622
-9.67052173614502 0.9760396480560302 -1.163198709487915
-9.698471069335938 0.9375758171081544 -1.1173593997955322
-9.870399475097656 0.9172306060791015 -1.093112826347351
-10.046623229980469 0.8923044204711914 -1.0634069442749023
-10.2940092086792 0.8731741905212401 -1.0406084060668945
-10.663636207580566 0.8521178960800171 -1.0155144929885864
-11.004175186157227 0.8250897526741028 -0.983303666114807
-11.363170623779297 0.7958334684371948 -0.9484373927116394
-11.738517761230469 0.7639680504798889 -0.910461723804474
-11.871567726135254 0.7267232537269592 -0.8660750389099121
-12.423072814941406 0.7048124074935913 -0.8399627208709718
-12.463080406188965 0.6603282690048218 -0.7869486212730408
-12.505887985229492 0.6331039667129517 -0.7545039057731628
-12.500967979431152 0.6118618845939636 -0.7291885614395142
-12.447361946105957 0.5921754837036133 -0.7057272791862488
-12.345617294311523 0.5822761058807373 -0.6939296722412109
-12.196795463562012 0.5744781494140625 -0.6846364140510559
-12.00832462310791 0.5612255930900574 -0.668842613697052
-11.580461502075195 0.5495314598083496 -0.6549060940742493
-11.267731666564941 0.534833550453186 -0.6373897790908813
-10.596474647521973 0.5200805068016052 -0.619807779788971
-9.569925308227539 0.5902605056762695 -0.7034450769424438
-8.22544002532959 0.6349872946739197 -0.756748378276825
-7.333886146545409 0.7555240392684937 -0.9003984928131105
-6.190023422241211 0.7992027401924133 -0.9524527192115785
-5.333207130432129 0.8264718055725098 -0.9849507212638856
-4.355525970458984 0.8566255569458007 -1.0208866596221924
-3.407652378082275 0.8750039935112001 -1.042789101600647
-1.922841191291809 0.9141296744346619 -1.0894173383712769