# vtk DataFile Version 4.0
 
ASCII
DATASET UNSTRUCTURED_GRID
POINTS 51 float
0.0034458015579730272 0.004327236674726009 0.005885251797735691
0.00369006278924644 0.0035876201000064616 0.010102489031851292
0.0038282745517790313 0.003559591481462121 0.014181198552250862
0.0037079283501952887 0.003882437245920301 0.018152941018342972
0.003376203589141369 0.004464223515242338 0.022025756537914276
0.0030025020241737366 0.005053247325122356 0.025821669027209282
0.002778564812615514 0.005275307688862085 0.029573416337370872
0.0027836053632199764 0.0053317248821258545 0.03326338157057762
0.0029529223684221506 0.005553869530558586 0.0368625782430172
0.003183003049343825 0.005668201949447393 0.04039493948221207
0.0033991164527833466 0.005767996422946453 0.043852299451828
0.0035584971774369474 0.005980952177196741 0.04722348600625992
0.0036438601091504097 0.006222726311534643 0.050515882670879364
0.003657505614683032 0.006404228042811156 0.053737279027700424
0.003614672925323248 0.006532208528369665 0.05688709020614624
0.0035364592913538218 0.006662748288363218 0.05996040627360344
0.003444118425250053 0.00684841861948371 0.06295262277126312
0.0033548057544976473 0.007102160714566708 0.06586261838674545
0.0032793087884783745 0.007390180137008429 0.06869334727525711
0.0032226084731519227 0.0076630208641290665 0.07144912332296371
0.003185397945344448 0.007888363674283028 0.07413279265165329
0.0031655679922550917 0.00806621927767992 0.07674434036016464
0.0031594964675605297 0.008217735216021538 0.07928192615509033
0.0031630429439246655 0.008367510512471199 0.08174338936805725
0.003172241384163499 0.00853424146771431 0.08412709832191467
0.0031837469432502985 0.00872926414012909 0.0864320620894432
0.003195086726918816 0.00895697996020317 0.08865790069103241
0.0032047536224126816 0.00921562034636736 0.09080475568771362
0.0032121820840984583 0.00949821900576353 0.09287324547767639
0.003217642894014716 0.009793850593268871 0.09486432373523712
0.0032219537533819675 0.01009020023047924 0.09677906334400177
0.0032260718289762735 0.010377046652138233 0.09861837327480316
0.003230798291042447 0.010648475959897041 0.10038275271654129
0.0032366192899644375 0.010903704911470413 0.10207228362560272
0.0032436484470963474 0.011146911419928074 0.10368659347295761
0.003251639194786548 0.011386383324861526 0.10522495955228804
0.0032600469421595335 0.011633260175585747 0.10668640583753586
0.003268117550760508 0.011899222619831562 0.10806991159915925
0.0032749890815466647 0.012190921232104301 0.10937489569187164
0.0032797926105558872 0.012505368329584599 0.11060161888599396
0.003281744895502925 0.012829523533582686 0.11175122112035751
0.0032802252098917965 0.01314269844442606 0.11282551288604735
0.0032748340163379903 0.013419782742857935 0.11382669210433961
0.0032654285896569495 0.013630270957946779 0.11475742608308791
0.003252137918025255 0.013737022876739502 0.11562096327543259
0.0032353585120290518 0.013702216558158398 0.11642061918973921
0.0032157283276319504 0.013496817089617252 0.1171589270234108
0.0031940888147801156 0.013109299354255198 0.11783689260482787
0.003171431832015514 0.01255116518586874 0.11845351755619049
0.003148839809000492 0.011858195066452026 0.11900567263364792
0.00312742218375206 0.011087418533861637 0.11948835849761963

CELLS 50 150
2 0 1
2 1 2
2 2 3
2 3 4
2 4 5
2 5 6
2 6 7
2 7 8
2 8 9
2 9 10
2 10 11
2 11 12
2 12 13
2 13 14
2 14 15
2 15 16
2 16 17
2 17 18
2 18 19
2 19 20
2 20 21
2 21 22
2 22 23
2 23 24
2 24 25
2 25 26
2 26 27
2 27 28
2 28 29
2 29 30
2 30 31
2 31 32
2 32 33
2 33 34
2 34 35
2 35 36
2 36 37
2 37 38
2 38 39
2 39 40
2 40 41
2 41 42
2 42 43
2 43 44
2 44 45
2 45 46
2 46 47
2 47 48
2 48 49
2 49 50

CELL_TYPES 50
4
4
4
4
4
4
4
4
4
4
4
4
4
4
4
4
4
4
4
4
4
4
4
4
4
4
4
4
4
4
4
4
4
4
4
4
4
4
4
4
4
4
4
4
4
4
4
4
4
4

POINT_DATA 51

SCALARS zone float
LOOKUP_TABLE default
1.0
1.0
1.0
1.0
1.0
1.0
1.0
1.0
1.0
1.0
1.0
1.0
1.0
1.0
1.0
1.0
1.0
1.0
1.0
1.0
1.0
1.0
1.0
1.0
1.0
1.0
1.0
1.0
1.0
1.0
1.0
1.0
1.0
1.0
1.0
1.0
1.0
1.0
1.0
1.0
1.0
1.0
1.0
1.0
1.0
1.0
1.0
1.0
1.0
1.0
1.0

VECTORS normals float
0.00012213067384436727 -0.000369808345567435 0.0021086183842271566
0.00019123655511066318 -0.000383822713047266 0.0041479733772575855
8.932776836445555e-6 0.00014740850019734353 0.00402522599324584
-0.0002260355104226619 0.00045231604599393904 0.003922278992831707
-0.0003527131921146065 0.0005854051560163498 0.0038343642372637987
-0.00029881938826292753 0.00040554211591370404 0.0037738294340670104
-0.0001094483450287953 0.00013923879305366427 0.003720856970176101
8.717876335140318e-5 0.00013928100815974176 0.003644582349807024
0.00019969894492533058 0.0001682384463492781 0.0035657777916640048
0.0002230970421805978 0.0001070632497430779 0.003494859207421541
0.0001877470058389008 0.0001563751429785043 0.003414273960515857
0.00012237193004693836 0.00022736508981324732 0.0033317920751869674
4.9504207709105685e-5 0.00021163786004763094 0.0032568972092121835
-1.4593665582651738e-5 0.0001547410647617653 0.0031856040004640813
-6.0523194406414405e-5 0.00012926019553560764 0.0031115624587982893
-8.52772718644701e-5 0.0001581051474204287 0.0030327679123729467
-9.082671022042632e-5 0.00021970621310174465 0.0029511074535548687
-8.240483293775469e-5 0.0002708806423470378 0.00287035945802927
-6.609866250073537e-5 0.0002804300165735185 0.002793252933770418
-4.695540701504797e-5 0.0002490919141564518 0.002719723852351308
-2.8520251362351697e-5 0.0002015994396060705 0.002647607820108533
-1.2950749805895612e-5 0.00016468561079818755 0.0025745665188878775
-1.2625629324247711e-6 0.00015064520994201303 0.002499524038285017
6.37255334368092e-6 0.00015825337322894484 0.0024225874803960323
1.0352104254707228e-5 0.0001808769884519279 0.002344337059184909
1.1422682291595265e-5 0.0002113688824465498 0.002265398623421788
1.050324772222666e-5 0.00024317803035955876 0.0021863447036594152
8.547682227799669e-6 0.00027061975561082363 0.0021076728589832783
6.444628070312319e-6 0.0002891152980737388 0.0020297837909311056
4.885740509052994e-6 0.0002959905250463635 0.0019529113778844476
4.214472937746905e-6 0.0002915981167461723 0.001877024653367698
4.422250640345737e-6 0.0002791380393318832 0.0018018438713625073
5.273810074868379e-6 0.00026332912966609 0.0017269559903070333
6.425153969757957e-6 0.00024921740987338126 0.0016519196797162294
7.509945589845301e-6 0.00024133888655342162 0.0015763380797579885
8.1992238847306e-6 0.00024317469797097147 0.001499906531535089
8.239160706580151e-6 0.00025641999673098326 0.0014224767219275236
7.471068784070667e-6 0.00027883026632480323 0.0013442451599985361
5.837506250827573e-6 0.0003030728257726878 0.001265853294171393
3.3778785564209097e-6 0.00031930115073919296 0.0011881624814122915
2.163614567507466e-7 0.00031866488279774785 0.0011119472328573465
-3.455363639659481e-6 0.0002951295755337924 0.0010377353755757213
-7.398393336188747e-6 0.00024378648959100246 0.0009659563656896353
-1.1348053703841288e-5 0.00015862015425227582 0.0008971365168690681
-1.5035005162644666e-5 3.5972407204099e-5 0.0008315958548337222
-1.8204780644737184e-5 -0.00012010292266495527 0.0007689797785133123
-2.06348231586162e-5 -0.00029645845643244684 0.000708137929905206
-2.214833330071997e-5 -0.0004728256317321211 0.000647297129034996
-2.2624490156886168e-5 -0.0006255519692786038 0.000584387977141887
-2.2004807760822587e-5 -0.000731873617041856 0.0005174190155230463
-1.070886446541408e-5 -0.00038538852822966874 0.00024134357227012515

CELL_DATA 50

VECTORS liftinglineloading               float
-0.003540916135534644 -0.09391634911298752 2.3257004808585006e-16
-0.05726250633597374 -0.33139902353286743 8.206609470184521e-16
-0.3976389765739441 -0.7632350921630859 1.890039460591855e-15
1.4391400814056396 0.04271100088953972 -1.057675151985419e-16
4.6962103843688965 0.23547707498073575 -5.831243741859357e-16
7.795864582061767 0.6211462616920471 -1.5381775273794456e-15
4.55080509185791 0.5769174098968506 -1.428651085101781e-15
-0.8411307930946349 -0.9881736040115355 2.4470667496728857e-15
-7.005810260772706 -2.550723075866699 6.316491129649452e-15
-12.316798210144043 -3.5615079402923584 8.819550992300584e-15
-15.154158592224121 -4.106410026550293 1.0168921064088784e-14
-15.706192016601562 -4.315110683441162 1.0685738216855995e-14
-16.346118927001953 -4.569023132324219 1.1314514490525385e-14
-16.452423095703125 -4.622701644897461 1.1447441065003897e-14
-16.215288162231445 -4.537449359893799 1.1236326573230235e-14
-16.976160049438477 -4.499334812164307 1.1141940844884742e-14
-17.001068115234375 -4.304137229919434 1.0658563705842183e-14
-16.922578811645508 -4.183045864105225 1.0358697948888163e-14
-17.368106842041016 -4.056704998016357 1.0045833624325578e-14
-17.50923728942871 -3.9043121337890625 9.66845503533537e-15
-17.496065139770508 -3.783800840377808 9.37002669329284e-15
-17.56695556640625 -3.6664149761199947 9.079337691289373e-15
-17.947559356689453 -3.604827880859375 8.926826868037394e-15
-17.286935806274414 -3.3181362152099605 8.216876038900835e-15
-17.85931396484375 -3.379496097564697 8.368825279308784e-15
-18.506017684936523 -3.320145606994629 8.221852357465954e-15
-18.940629959106445 -3.257978200912475 8.067904119302485e-15
-20.45322036743164 -3.3423168659210205 8.276757033106978e-15
-20.839630126953125 -3.2674751281738277 8.091421989083001e-15
-21.39174461364746 -3.1917197704315186 7.903825367089855e-15
-22.051292419433594 -3.072932004928589 7.609664377035592e-15
-22.40143394470215 -2.983469009399414 7.38812290968123e-15
-22.763553619384766 -2.7647199630737305 6.846422470022529e-15
-22.89446449279785 -2.553239345550537 6.3227219040094565e-15
-22.761667251586914 -2.4357941150665283 6.031885941789641e-15
-22.461334228515625 -2.2859954833984375 5.6609320977043555e-15
-21.97114372253418 -2.0542726516723633 5.0871041218727726e-15
-21.15728759765625 -1.9185394048690798 4.7509806960950585e-15
-20.21969985961914 -1.817327857017517 4.5003453410684055e-15
-19.316078186035156 -1.696637511253357 4.201473577277988e-15
-18.391082763671875 -1.5792639255523682 3.910815068460622e-15
-16.574735641479492 -1.512424349784851 3.745296783754133e-15
-13.793512344360353 -1.547119140625 3.831213029660031e-15
-11.556242942810059 -1.499444842338562 3.713154848021148e-15
-9.320785522460938 -1.6723130941390991 4.141237676266946e-15
-7.839901447296142 -1.7210863828659055 4.2620173747653575e-15
-6.193031311035156 -1.690076231956482 4.185225367767283e-15
-4.715115070343018 -1.6774924993515015 4.1540634491542706e-15
-3.118880271911621 -1.6367591619491577 4.053193683597545e-15
-1.674087643623352 -1.5867502689361572 3.929353655060704e-15