# vtk DataFile Version 4.0
 
ASCII
DATASET UNSTRUCTURED_GRID
POINTS 51 float
0.0034458015579730272 0.00016902326024137437 0.0073029170744121075
0.00369006278924644 -0.002855743048712611 0.010333248414099216
0.0038282745517790313 -0.00521815475076437 0.013658255338668823
0.0037079283501952887 -0.0072317924350500115 0.01709689199924469
0.003376203589141369 -0.00897657684981823 0.020603017881512642
0.0030025020241737366 -0.010671323165297508 0.02405029721558094
0.002778564812615514 -0.012641334906220436 0.02725091576576233
0.0027836053632199764 -0.014711598865687847 0.03030592016875744
0.0029529223684221506 -0.016594043001532555 0.0333816260099411
0.003183003049343825 -0.018526466563344002 0.03634074330329895
0.0033991164527833466 -0.020427778363227844 0.03923008590936661
0.0035584971774369474 -0.022186970338225365 0.04211374744772911
0.0036438601091504097 -0.02387736178934574 0.04494939744472504
0.003657505614683032 -0.025576401501893997 0.04769231751561165
0.003614672925323248 -0.027278222143650055 0.05034589767456055
0.0035364592913538218 -0.028934072703123093 0.0529382862150669
0.003444118425250053 -0.030498247593641278 0.055495865643024445
0.0033548057544976473 -0.031959496438503265 0.05802513286471367
0.0032793087884783745 -0.03334720432758331 0.06050912663340568
0.0032226084731519227 -0.034704357385635376 0.06292302906513214
0.003185397945344448 -0.03605905547738075 0.06525060534477234
0.0031655679922550917 -0.03741128742694855 0.06749188154935837
0.0031594964675605297 -0.03874266892671585 0.06965745240449905
0.0031630429439246655 -0.04003182053565979 0.0717596709728241
0.003172241384163499 -0.04126248136162758 0.07380792498588562
0.0031837469432502985 -0.042424801737070084 0.07580789923667908
0.003195086726918816 -0.043514952063560486 0.07776181399822235
0.0032047536224126816 -0.04453447461128235 0.07966876029968262
0.0032121820840984583 -0.045489419251680374 0.08152525871992111
0.003217642894014716 -0.04638928547501564 0.0833258256316185
0.0032219537533819675 -0.047244783490896225 0.08506426960229874
0.0032260718289762735 -0.04806479439139366 0.08673547208309174
0.003230798291042447 -0.048854462802410126 0.08833645284175873
0.0032366192899644375 -0.04961446300148964 0.08986682444810867
0.0032436484470963474 -0.0503411702811718 0.0913286879658699
0.003251639194786548 -0.05102737993001938 0.0927262008190155
0.0032600469421595335 -0.051663398742675774 0.09406495094299316
0.003268117550760508 -0.052239082753658295 0.09535080194473267
0.0032749890815466647 -0.052748646587133415 0.09658709168434143
0.0032797926105558872 -0.05319468304514884 0.09777233004570007
0.003281744895502925 -0.05358853563666344 0.0988999530673027
0.0032802252098917965 -0.05394818633794785 0.0999595895409584
0.0032748340163379903 -0.05429546535015106 0.10093864053487778
0.0032654285896569495 -0.05465688928961754 0.10182178020477295
0.003252137918025255 -0.05506475269794464 0.10259038209915161
0.0032353585120290518 -0.0555519238114357 0.1032254546880722
0.0032157283276319504 -0.05614365264773369 0.10371243208646773
0.0031940888147801156 -0.05684995651245117 0.10404551774263383
0.003171431832015514 -0.05766083300113678 0.10423049330711365
0.003148839809000492 -0.05854518339037895 0.10428532212972641
0.00312742218375206 -0.059453424066305154 0.10423861443996428

CELLS 50 150
2 0 1
2 1 2
2 2 3
2 3 4
2 4 5
2 5 6
2 6 7
2 7 8
2 8 9
2 9 10
2 10 11
2 11 12
2 12 13
2 13 14
2 14 15
2 15 16
2 16 17
2 17 18
2 18 19
2 19 20
2 20 21
2 21 22
2 22 23
2 23 24
2 24 25
2 25 26
2 26 27
2 27 28
2 28 29
2 29 30
2 30 31
2 31 32
2 32 33
2 33 34
2 34 35
2 35 36
2 36 37
2 37 38
2 38 39
2 39 40
2 40 41
2 41 42
2 42 43
2 43 44
2 44 45
2 45 46
2 46 47
2 47 48
2 48 49
2 49 50

CELL_TYPES 50
4
4
4
4
4
4
4
4
4
4
4
4
4
4
4
4
4
4
4
4
4
4
4
4
4
4
4
4
4
4
4
4
4
4
4
4
4
4
4
4
4
4
4
4
4
4
4
4
4
4

POINT_DATA 51

SCALARS zone float
LOOKUP_TABLE default
1.0
1.0
1.0
1.0
1.0
1.0
1.0
1.0
1.0
1.0
1.0
1.0
1.0
1.0
1.0
1.0
1.0
1.0
1.0
1.0
1.0
1.0
1.0
1.0
1.0
1.0
1.0
1.0
1.0
1.0
1.0
1.0
1.0
1.0
1.0
1.0
1.0
1.0
1.0
1.0
1.0
1.0
1.0
1.0
1.0
1.0
1.0
1.0
1.0
1.0
1.0

VECTORS normals float
0.00012213067384436727 -0.001512383110821247 0.0015151657862588763
0.00019123655511066318 -0.0026935890782624483 0.003177669364959002
8.932776836445555e-6 -0.0021880248095840216 0.0033818220254033804
-0.0002260355104226619 -0.0018792111659422517 0.003472380805760622
-0.0003527131921146065 -0.001719765132293105 0.003476701909676194
-0.00029881938826292753 -0.0018323789117857814 0.003323949407786131
-0.0001094483450287953 -0.002020138083025813 0.003127811709418893
8.717876335140318e-5 -0.001976354280486703 0.0030653553549200296
0.00019969894492533058 -0.0019074332667514682 0.0030174118001013994
0.0002230970421805978 -0.0019168677972629666 0.0029242299497127533
0.0001877470058389008 -0.001830252003856003 0.0028865025378763676
0.00012237193004693836 -0.0017247908981516957 0.002859655534848571
4.9504207709105685e-5 -0.0016947159310802815 0.0027892845682799816
-1.4593665582651738e-5 -0.0017004309920594098 0.0026982498820871115
-6.0523194406414405e-5 -0.0016788351349532604 0.002622983418405056
-8.52772718644701e-5 -0.0016100120265036821 0.002574983285740018
-9.082671022042632e-5 -0.0015127129154279828 0.0025434240233153105
-8.240483293775469e-5 -0.0014244781341403723 0.002506631426513195
-6.609866250073537e-5 -0.001372429309412837 0.002448946936056018
-4.695540701504797e-5 -0.0013559253420680761 0.002370740519836545
-2.8520251362351697e-5 -0.0013534649042412639 0.0022844262421131134
-1.2950749805895612e-5 -0.001341808121651411 0.002203421201556921
-1.2625629324247711e-6 -0.0013102666707709432 0.0021338968072086573
6.37255334368092e-6 -0.001259905518963933 0.0020752379205077887
1.0352104254707228e-5 -0.0011964908335357904 0.0020241152960807085
1.1422682291595265e-5 -0.0011262359330430627 0.0019769419450312853
1.050324772222666e-5 -0.0010548359714448452 0.001930429833009839
8.547682227799669e-6 -0.0009872327791526914 0.0018817256204783916
6.444628070312319e-6 -0.0009274067706428467 0.0018285312689840794
4.885740509052994e-6 -0.0008776827016845345 0.0017695045098662376
4.214472937746905e-6 -0.0008377539343200625 0.0017048224108293653
4.422250640345737e-6 -0.0008048386662267148 0.0016360910376533866
5.273810074868379e-6 -0.0007748347125016153 0.0015656789764761925
6.425153969757957e-6 -0.0007433552527800202 0.0014961186097934842
7.509945589845301e-6 -0.0007064571254886687 0.001429686788469553
8.1992238847306e-6 -0.0006611139397136867 0.0013681306736543775
8.239160706580151e-6 -0.0006058521685190499 0.0013123011449351907
7.471068784070667e-6 -0.0005426229326985776 0.0012610716512426734
5.837506250827573e-6 -0.0004778008733410388 0.001210761722177267
3.3778785564209097e-6 -0.00041994583443738526 0.0011564294109120965
2.163614567507466e-7 -0.0003767517628148198 0.0010936325415968895
-3.455363639659481e-6 -0.000353464565705508 0.0010193424532189965
-7.398393336188747e-6 -0.0003543516213539988 0.0009310953319072724
-1.1348053703841288e-5 -0.000384642364224419 0.0008258720044977963
-1.5035005162644666e-5 -0.00044751694076694554 0.000701836368534714
-1.8204780644737184e-5 -0.0005394512554630637 0.0005610231310129166
-2.06348231586162e-5 -0.0006490157684311271 0.0004100310325156898
-2.214833330071997e-5 -0.0007585904677398503 0.00025903311325237155
-2.2624490156886168e-5 -0.0008476133225485681 0.00011990076745860279
-2.2004807760822587e-5 -0.000896295125130564 4.059361344843637e-6
-1.070886446541408e-5 -0.00045412077452056115 -2.3352693460765295e-5

CELL_DATA 50

VECTORS liftinglineloading               float
-0.1141078844666481 -0.04210849106311798 -0.02948468178510666
-0.13030093908309937 -0.10293509811162947 -0.07207593321800232
-0.13916414976119995 -0.17096363008022308 -0.1197100281715393
0.06867610663175583 -0.01096720714122057 -0.0076793208718299874
0.6309974789619446 -0.023858439177274704 -0.016705859452486038
1.967320442199707 0.11771228909492494 0.08242303133010864
0.8588026165962219 0.09309981018304825 0.0651891902089119
-0.9441233873367311 -0.43397662043571467 -0.3038736879825592
-3.706374883651733 -0.9706629514694214 -0.6796655058860779
-5.8561882972717285 -1.4156121015548706 -0.991222321987152
-7.283002853393555 -1.7498613595962522 -1.2252660989761353
-8.349225044250488 -2.0099432468414307 -1.4073773622512817
-9.471138000488281 -2.28296160697937 -1.5985469818115234
-10.931562423706055 -2.5086965560913086 -1.7566081285476685
-11.724660873413086 -2.660733699798584 -1.8630657196044922
-11.777548789978027 -2.627079486846924 -1.839500904083252
-11.751456260681152 -2.536726474761963 -1.7762349843978882
-11.561785697937012 -2.489431619644165 -1.7431187629699707
-11.905550956726074 -2.477104902267456 -1.734487533569336
-11.997797966003418 -2.39481782913208 -1.676869511604309
-12.302994728088379 -2.3797903060913086 -1.6663470268249514
-13.001328468322754 -2.390899896621704 -1.674126148223877
-15.69774913787842 -2.5723516941070557 -1.8011801242828371
-16.31237030029297 -2.446864128112793 -1.7133127450942993
-18.38782501220703 -2.5746564865112305 -1.8027938604354858
-20.723987579345703 -2.593456506729126 -1.81595778465271
-22.830223083496094 -2.579477310180664 -1.806169509887695
-25.824905395507812 -2.572145938873291 -1.80103600025177
-27.31491851806641 -2.4128530025482178 -1.6894978284835815
-29.461395263671875 -2.258570909500122 -1.5814683437347412
-30.23411750793457 -2.0220327377319336 -1.4158425331115723
-31.42206382751465 -1.939746379852295 -1.3582251071929932
-32.134159088134766 -1.8354275226593015 -1.2851802110671997
-32.738990783691406 -1.5036883354187012 -1.0528939962387085
-33.5753059387207 -1.394195318222046 -0.9762260913848877
-35.07279586791992 -1.2716437578201294 -0.8904145359992982
-37.23986053466797 -1.1980215311050415 -0.8388637304306031
-30.607263565063477 -1.1485193967819214 -0.8042019605636597
-27.1989688873291 -1.1287287473678589 -0.7903444170951843
-24.235424041748047 -1.115639090538025 -0.781178891658783
-21.676101684570312 -1.0350451469421387 -0.7247464060783386
-18.372573852539062 -1.1263927221298218 -0.7887086272239685
-15.00151252746582 -1.3285582065582275 -0.9302664399147033
-12.067936897277832 -1.378671646118164 -0.9653562903404237
-9.515924453735352 -1.6353436708450317 -1.1450799703598022
-7.506017684936523 -1.7013930082321165 -1.1913281679153442
-5.7163896560668945 -1.7290878295898438 -1.2107203006744385
-4.18827486038208 -1.7291769981384277 -1.210782766342163
-2.80964994430542 -1.715055704116821 -1.2008949518203735
-1.4623547792434692 -1.702507734298706 -1.1921087503433228