# vtk DataFile Version 4.0
 
ASCII
DATASET UNSTRUCTURED_GRID
POINTS 51 float
0.0034458015579730272 -0.005044424440711737 0.005283459555357695
0.00369006278924644 -0.0093260258436203 0.005287394858896732
0.0038282745517790313 -0.013347637839615347 0.005968052428215742
0.0037079283501952887 -0.01720297895371914 0.0069756791926920405
0.003376203589141369 -0.020915931090712547 0.008221134543418884
0.0030025020241737366 -0.024551892653107643 0.009460363537073135
0.002778564812615514 -0.028208080679178238 0.010330533608794212
0.0027836053632199764 -0.031832192093133926 0.01102684997022152
0.0029529223684221506 -0.035338133573532104 0.011870614252984524
0.003183003049343825 -0.03879697620868683 0.012596596963703632
0.0033991164527833466 -0.04218447953462601 0.013295238837599754
0.0035584971774369474 -0.045467473566532135 0.014090360142290592
0.0036438601091504097 -0.04866786673665047 0.014900180511176586
0.003657505614683032 -0.05180880799889564 0.015638314187526703
0.003614672925323248 -0.054888542741537094 0.01631130836904049
0.0035364592913538218 -0.05789249762892723 0.01697354204952717
0.003444118425250053 -0.060807019472122185 0.017675984650850296
0.0033548057544976473 -0.06362874060869217 0.01843118667602539
0.0032793087884783745 -0.06636644899845123 0.01920638047158718
0.0032226084731519227 -0.06903298199176788 0.019953612238168716
0.003185397945344448 -0.07163675129413605 0.020641546696424484
0.0031655679922550917 -0.07417774200439453 0.02127019129693508
0.0031594964675605297 -0.0766504630446434 0.02186005190014839
0.0031630429439246655 -0.0790485218167305 0.022434979677200317
0.003172241384163499 -0.08136706799268723 0.023013105615973473
0.0031837469432502985 -0.0836031436920166 0.02360541746020317
0.003195086726918816 -0.08575562387704849 0.0242161862552166
0.0032047536224126816 -0.08782494813203812 0.024843694642186165
0.0032121820840984583 -0.08981294184923172 0.02548118866980076
0.003217642894014716 -0.09172243624925613 0.026118077337741855
0.0032219537533819675 -0.09355662763118744 0.026742415502667424
0.0032260718289762735 -0.09531818330287933 0.02734429761767387
0.003230798291042447 -0.09700862318277359 0.027917984873056412
0.0032366192899644375 -0.09862817078828812 0.028462719172239307
0.0032436484470963474 -0.10017572343349457 0.028982551768422127
0.003251639194786548 -0.10164912790060042 0.029485519975423813
0.0032600469421595335 -0.10304550826549531 0.02998242527246475
0.003268117550760508 -0.10436180979013443 0.03048459067940712
0.0032749890815466647 -0.10559631139039995 0.030998464673757557
0.0032797926105558872 -0.10674979537725447 0.03152115270495415
0.003281744895502925 -0.10782564431428909 0.03204001113772392
0.0032802252098917965 -0.10882923752069472 0.03253497555851936
0.0032748340163379903 -0.1097670868039131 0.03298170492053032
0.0032654285896569495 -0.11064713448286057 0.033350616693496704
0.003252137918025255 -0.1114790141582489 0.03360569477081299
0.0032353585120290518 -0.11227256059646606 0.03371027857065201
0.0032157283276319504 -0.11303532123565674 0.03363620489835739
0.0031940888147801156 -0.11377028375864029 0.03337230160832405
0.003171431832015514 -0.11447446048259735 0.03292972221970558
0.003148839809000492 -0.11513855308294295 0.03234316036105156
0.00312742218375206 -0.11574774980545044 0.031667910516262054

CELLS 50 150
2 0 1
2 1 2
2 2 3
2 3 4
2 4 5
2 5 6
2 6 7
2 7 8
2 8 9
2 9 10
2 10 11
2 11 12
2 12 13
2 13 14
2 14 15
2 15 16
2 16 17
2 17 18
2 18 19
2 19 20
2 20 21
2 21 22
2 22 23
2 23 24
2 24 25
2 25 26
2 26 27
2 27 28
2 28 29
2 29 30
2 30 31
2 31 32
2 32 33
2 33 34
2 34 35
2 35 36
2 36 37
2 37 38
2 38 39
2 39 40
2 40 41
2 41 42
2 42 43
2 43 44
2 44 45
2 45 46
2 46 47
2 47 48
2 48 49
2 49 50

CELL_TYPES 50
4
4
4
4
4
4
4
4
4
4
4
4
4
4
4
4
4
4
4
4
4
4
4
4
4
4
4
4
4
4
4
4
4
4
4
4
4
4
4
4
4
4
4
4
4
4
4
4
4
4

POINT_DATA 51

SCALARS zone float
LOOKUP_TABLE default
1.0
1.0
1.0
1.0
1.0
1.0
1.0
1.0
1.0
1.0
1.0
1.0
1.0
1.0
1.0
1.0
1.0
1.0
1.0
1.0
1.0
1.0
1.0
1.0
1.0
1.0
1.0
1.0
1.0
1.0
1.0
1.0
1.0
1.0
1.0
1.0
1.0
1.0
1.0
1.0
1.0
1.0
1.0
1.0
1.0
1.0
1.0
1.0
1.0
1.0
1.0

VECTORS normals float
0.00012213067384436727 -0.002140800468623638 1.96763789972465e-6
0.00019123655511066318 -0.0041516064666211605 0.0003422964655328542
8.932776836445555e-6 -0.003938476555049419 0.0008441421668976546
-0.0002260355104226619 -0.003784146858379245 0.0011265409411862493
-0.0003527131921146065 -0.0036744570825248952 0.0012423419393599033
-0.00029881938826292753 -0.0036460747942328453 0.0010546996491029859
-0.0001094483450287953 -0.003640150185674429 0.0007832434494048357
8.717876335140318e-5 -0.0035650269128382206 0.0007700400892645121
0.00019969894492533058 -0.00348239135928452 0.0007848733803257346
0.0002230970421805978 -0.0034231729805469513 0.0007123126415535808
0.0001877470058389008 -0.0033352491445839405 0.0007468818803317845
0.00012237193004693836 -0.0032416931353509426 0.0008024705457501113
4.9504207709105685e-5 -0.0031706669833511114 0.0007739768479950726
-1.4593665582651738e-5 -0.003110337071120739 0.0007055645692162216
-6.0523194406414405e-5 -0.0030418450478464365 0.0006676135817542672
-8.52772718644701e-5 -0.002959238598123193 0.0006823377916589379
-9.082671022042632e-5 -0.0028681219555437565 0.0007288228371180594
-8.240483293775469e-5 -0.002779714297503233 0.0007651980267837644
-6.609866250073537e-5 -0.0027021211571991444 0.0007612129556946456
-4.695540701504797e-5 -0.00263515068218112 0.0007175827049650252
-2.8520251362351697e-5 -0.0025723774451762438 0.0006582890055142343
-1.2950749805895612e-5 -0.0025068556424230337 0.000609252427238971
-1.2625629324247711e-6 -0.002435391303151846 0.0005823943647556007
6.37255334368092e-6 -0.0023583024740219116 0.0005765270325355232
1.0352104254707228e-5 -0.002277312334626913 0.0005852189497090876
1.1422682291595265e-5 -0.002194278175011277 0.0006015400285832584
1.050324772222666e-5 -0.00211090175434947 0.0006191383581608534
8.547682227799669e-6 -0.0020286599174141884 0.0006325019639916718
6.444628070312319e-6 -0.001948742428794503 0.0006371912313625216
4.885740509052994e-6 -0.0018718440551310775 0.0006306132418103516
4.214472937746905e-6 -0.0017978729447349906 0.0006131100235506892
4.422250640345737e-6 -0.0017259980086237192 0.000587784219533205
5.273810074868379e-6 -0.0016549930442124605 0.0005592113011516631
6.425153969757957e-6 -0.0015835472149774432 0.0005322840879671276
7.509945589845301e-6 -0.0015104818157851696 0.0005114006344228983
8.1992238847306e-6 -0.0014348926488310099 0.0004999363445676863
8.239160706580151e-6 -0.0013563391985371709 0.0004995348863303661
7.471068784070667e-6 -0.0012754047056660056 0.0005080199334770441
5.837506250827573e-6 -0.0011939940741285682 0.0005182815948501229
3.3778785564209097e-6 -0.0011146656470373273 0.0005207725334912539
2.163614567507466e-7 -0.0010397187434136868 0.0005069112521596253
-3.455363639659481e-6 -0.0009707211283966898 0.000470846745884046
-7.398393336188747e-6 -0.0009089482482522726 0.0004078194033354521
-1.1348053703841288e-5 -0.0008559629204683006 0.00031199646764434874
-1.5035005162644666e-5 -0.0008127155015245081 0.00017983101133722812
-1.8204780644737184e-5 -0.0007781528984196484 1.5253642231982667e-5
-2.06348231586162e-5 -0.000748859194573015 -0.0001689877244643867
-2.214833330071997e-5 -0.000719568517524749 -0.0003532403788994998
-2.2624490156886168e-5 -0.000684135768096894 -0.0005145705072209239
-2.2004807760822587e-5 -0.0006366467569023371 -0.0006309059681370854
-1.070886446541408e-5 -0.0003045990306418389 -0.0003376247186679393

CELL_DATA 50

VECTORS liftinglineloading               float
-0.2799024283885956 -0.11090915650129318 -0.6289970874786377
-0.5516857504844666 -0.308889776468277 -1.7518008947372439
-1.339940071105957 -0.5204476118087769 -2.9516048431396484
1.82659387588501 -0.034113019704818726 -0.19346456229686737
4.929834365844727 -0.05732196196913719 -0.3250890076160431
6.762027740478515 -0.047625139355659485 -0.2700955867767334
4.871551513671875 -0.008729224093258381 -0.049505893141031265
1.613327980041504 0.012979038991034033 0.07360778748989105
-1.3108296394348145 -0.1186884641647339 -0.6731157302856445
-3.2858881950378422 -0.16459421813488007 -0.9334602355957031
-1.6715474128723145 -0.11309173703193663 -0.6413751244544983
0.35876786708831787 0.0032579246908426285 0.018476609140634537
0.7980540990829468 0.020304135978221893 0.11515048146247862
0.7971521615982056 0.013824665918946266 0.07840357720851898
0.38011711835861206 -0.014156986959278585 -0.08028826117515564
-0.5852680802345276 -0.06792241334915161 -0.3852071464061737
-2.0736594200134277 -0.13940827548503876 -0.7906236052513123
-3.790337562561035 -0.20565548539161682 -1.1663302183151245
-5.822307586669922 -0.2742333710193634 -1.5552548170089722
-7.705686569213867 -0.31597113609313965 -1.7919614315032957
-9.559237480163574 -0.35283800959587097 -2.0010437965393066
-11.245596885681152 -0.38005903363227844 -2.1554219722747803
-12.918201446533203 -0.40498921275138855 -2.2968077659606934
-13.448223114013672 -0.3952438235282898 -2.2415390014648438
-14.66611671447754 -0.4174961745738983 -2.3677384853363037
-15.853306770324705 -0.42454212903976446 -2.407698154449463
-16.60323143005371 -0.4268082678318024 -2.4205498695373535
-18.04973030090332 -0.4406791925430298 -2.499215841293335
-18.630401611328125 -0.4373253881931305 -2.4801955223083496
-19.06998062133789 -0.4300195574760437 -2.4387619495391846
-19.30460548400879 -0.41400524973869324 -2.347940444946289
-20.386560440063477 -0.4095763564109802 -2.3228230476379395
-20.410564422607422 -0.3868575394153595 -2.1939780712127686
-20.334983825683594 -0.3542003929615021 -2.008770227432251
-20.12112045288086 -0.34215036034584045 -1.9404311180114746
-19.7733154296875 -0.3244803249835968 -1.840219259262085
-19.302766799926758 -0.2956457734107971 -1.6766905784606934
-18.539579391479492 -0.27859175205230713 -1.5799723863601685
-17.747039794921875 -0.2662675976753235 -1.5100785493850708
-17.014009475708008 -0.2505667507648468 -1.421034574508667
-16.261295318603516 -0.23415030539035797 -1.327932357788086
-14.700672149658203 -0.2259514033794403 -1.2814340591430664
-12.300359725952148 -0.23372067511081696 -1.3254958391189575
-10.33320426940918 -0.22786326706409452 -1.2922767400741577
-8.345152854919434 -0.25648611783981323 -1.454604983329773
-7.0298142433166495 -0.2646377384662628 -1.5008351802825928
-5.548131465911865 -0.2603813111782074 -1.4766957759857178
-4.187599182128906 -0.2583175301551819 -1.464991569519043
-2.770477056503296 -0.25180914998054504 -1.428080677986145
-1.4740543365478516 -0.24357007443904874 -1.3813544511795044