# vtk DataFile Version 4.0
 
ASCII
DATASET UNSTRUCTURED_GRID
POINTS 51 float
0.0034458015579730272 -0.0017268700757995248 0.007097822614014149
0.00369006278924644 -0.005432877689599991 0.009242030791938305
0.0038282745517790313 -0.00857536680996418 0.011842303909361362
0.0037079283501952887 -0.011410376988351345 0.014642604626715183
0.003376203589141369 -0.01400316134095192 0.017577677965164185
0.0030025020241737366 -0.016532381996512413 0.020468860864639282
0.002778564812615514 -0.019263647496700287 0.023050544783473015
0.0027836053632199764 -0.02205406315624714 0.025465628132224083
0.0029529223684221506 -0.024668416008353233 0.027949320152401924
0.003183003049343825 -0.027300868183374405 0.030307460576295853
0.0033991164527833466 -0.029885211959481236 0.032606255263090134
0.0035584971774369474 -0.03233080729842186 0.03493634611368179
0.0036438601091504097 -0.0346975214779377 0.03723786771297455
0.003657505614683032 -0.0370485857129097 0.03944758325815201
0.003614672925323248 -0.039379216730594635 0.041570279747247696
0.0035364592913538218 -0.041649602353572845 0.043645765632390976
0.003444118425250053 -0.043822430074214935 0.04571136087179184
0.0033548057544976473 -0.0458885133266449 0.047776248306035995
0.0032793087884783745 -0.04787183925509453 0.04981643706560135
0.0032226084731519227 -0.049807511270046234 0.05179682746529579
0.003185397945344448 -0.051718469709157944 0.053694479167461395
0.0031655679922550917 -0.05360471084713936 0.05550939589738846
0.0031594964675605297 -0.055451221764087684 0.05725659057497978
0.0031630429439246655 -0.05724053829908372 0.05895352363586426
0.003172241384163499 -0.05895939469337463 0.0606134682893753
0.0031837469432502985 -0.06059974059462547 0.062244463711977005
0.003195086726918816 -0.062158454209566116 0.06384964287281036
0.0032047536224126816 -0.06363678723573685 0.0654277428984642
0.0032121820840984583 -0.06503969430923462 0.06697382777929306
0.003217642894014716 -0.06637492030858994 0.06848013401031494
0.0032219537533819675 -0.06765121221542358 0.06993792951107025
0.0032260718289762735 -0.06887581944465637 0.07133994251489639
0.003230798291042447 -0.07005294412374496 0.07268199324607849
0.0032366192899644375 -0.07118313759565353 0.07396352291107178
0.0032436484470963474 -0.0722634419798851 0.07518748939037323
0.003251639194786548 -0.0732879713177681 0.07635977864265442
0.0032600469421595335 -0.07424881309270859 0.07748829573392868
0.003268117550760508 -0.0751376822590828 0.07858133316040039
0.0032749890815466647 -0.07594985514879227 0.079643614590168
0.0032797926105558872 -0.07668746262788773 0.08067301660776138
0.003281744895502925 -0.07735974341630936 0.08166028559207916
0.0032802252098917965 -0.07798139750957489 0.0825907364487648
0.0032748340163379903 -0.07857023179531097 0.08344653993844986
0.0032654285896569495 -0.07914792001247406 0.08420604467391968
0.003252137918025255 -0.07974080741405487 0.08484289050102234
0.0032353585120290518 -0.08037575334310532 0.08533024042844772
0.0032157283276319504 -0.08107335865497589 0.08564746379852295
0.0031940888147801156 -0.08184180408716202 0.08578640222549438
0.003171431832015514 -0.08267292380332947 0.08575520664453506
0.003148839809000492 -0.08354133367538452 0.0855792760848999
0.00312742218375206 -0.0844065397977829 0.08529908955097198

CELLS 50 150
2 0 1
2 1 2
2 2 3
2 3 4
2 4 5
2 5 6
2 6 7
2 7 8
2 8 9
2 9 10
2 10 11
2 11 12
2 12 13
2 13 14
2 14 15
2 15 16
2 16 17
2 17 18
2 18 19
2 19 20
2 20 21
2 21 22
2 22 23
2 23 24
2 24 25
2 25 26
2 26 27
2 27 28
2 28 29
2 29 30
2 30 31
2 31 32
2 32 33
2 33 34
2 34 35
2 35 36
2 36 37
2 37 38
2 38 39
2 39 40
2 40 41
2 41 42
2 42 43
2 43 44
2 44 45
2 45 46
2 46 47
2 47 48
2 48 49
2 49 50

CELL_TYPES 50
4
4
4
4
4
4
4
4
4
4
4
4
4
4
4
4
4
4
4
4
4
4
4
4
4
4
4
4
4
4
4
4
4
4
4
4
4
4
4
4
4
4
4
4
4
4
4
4
4
4

POINT_DATA 51

SCALARS zone float
LOOKUP_TABLE default
1.0
1.0
1.0
1.0
1.0
1.0
1.0
1.0
1.0
1.0
1.0
1.0
1.0
1.0
1.0
1.0
1.0
1.0
1.0
1.0
1.0
1.0
1.0
1.0
1.0
1.0
1.0
1.0
1.0
1.0
1.0
1.0
1.0
1.0
1.0
1.0
1.0
1.0
1.0
1.0
1.0
1.0
1.0
1.0
1.0
1.0
1.0
1.0
1.0
1.0
1.0

VECTORS normals float
0.00012213067384436727 -0.0018530037486925721 0.0010721042053774
0.00019123655511066318 -0.003424248658120632 0.002372240647673607
8.932776836445555e-6 -0.002988749649375677 0.002700286917388439
-0.0002260355104226619 -0.0027138967998325825 0.0028676865622401237
-0.0003527131921146065 -0.0025610022712498903 0.002913128351792693
-0.00029881938826292753 -0.002630243543535471 0.002736434107646346
-0.0001094483450287953 -0.0027608408126980066 0.002498383866623044
8.717876335140318e-5 -0.002702383790165186 0.0024493876844644547
0.00019969894492533058 -0.0026234027463942766 0.002420915989205241
0.0002230970421805978 -0.0026083984412252903 0.002328467322513461
0.0001877470058389008 -0.0025149695575237274 0.0023144432343542576
0.00012237193004693836 -0.0024061533622443676 0.002315806457772851
4.9504207709105685e-5 -0.0023588899057358503 0.0022556171752512455
-1.4593665582651738e-5 -0.002340848557651043 0.002166205318644643
-6.0523194406414405e-5 -0.0023005083203315735 0.0020990928169339895
-8.52772718644701e-5 -0.002221606904640794 0.002070541260764003
-9.082671022042632e-5 -0.0021194550208747387 0.0020652401726692915
-8.240483293775469e-5 -0.002024704124778509 0.0020525380969047546
-6.609866250073537e-5 -0.0019594989717006683 0.002010290278121829
-4.695540701504797e-5 -0.0019233161583542824 0.0019390202360227704
-2.8520251362351697e-5 -0.0018985996721312402 0.0018562837503850458
-1.2950749805895612e-5 -0.0018663745140656829 0.001781055936589837
-1.2625629324247711e-6 -0.0018179136095568538 0.0017220639856532216
6.37255334368092e-6 -0.0017540863482281566 0.0016784382751211526
1.0352104254707228e-5 -0.0016796009149402378 0.0016454707365483046
1.1422682291595265e-5 -0.0015995306894183157 0.0016180881066247823
1.050324772222666e-5 -0.001518525299616158 0.0015916404081508517
8.547682227799669e-6 -0.0014406200498342514 0.0015620928024873137
6.444628070312319e-6 -0.0013690649066120386 0.0015261949738487601
4.885740509052994e-6 -0.0013057577889412642 0.0014820491196587682
4.214472937746905e-6 -0.0012504486367106438 0.0014299053000286222
4.422250640345737e-6 -0.0012008659541606903 0.0013720350107178092
5.273810074868379e-6 -0.001153660356067121 0.001311787753365934
6.425153969757957e-6 -0.0011052500922232866 0.0012527451617643237
7.509945589845301e-6 -0.0010524153476580977 0.0011981268180534244
8.1992238847306e-6 -0.0009926853235810995 0.0011504038702696562
8.239160706580151e-6 -0.0009248568094335496 0.0011107795871794224
7.471068784070667e-6 -0.0008505228906869888 0.0010776604758575559
5.837506250827573e-6 -0.0007748883799649775 0.0010458420729264617
3.3778785564209097e-6 -0.0007049424457363784 0.0010083350352942944
2.163614567507466e-7 -0.0006469672080129385 0.0009588573593646288
-3.455363639659481e-6 -0.0006052458193153143 0.0008931257762014865
-7.398393336188747e-6 -0.000583262590225786 0.0008076560916379094
-1.1348053703841288e-5 -0.0005852874019183218 0.0006981783080846071
-1.5035005162644666e-5 -0.0006139167817309499 0.0005620960146188736
-1.8204780644737184e-5 -0.0006662733503617346 0.0004022864741273224
-2.06348231586162e-5 -0.0007330249645747244 0.00022808193170931193
-2.214833330071997e-5 -0.0007997847860679032 5.3869127441430464e-5
-2.2624490156886168e-5 -0.0008497642120346427 -0.00010356323036830874
-2.2004807760822587e-5 -0.0008668052614666522 -0.00022805720800533893
-1.070886446541408e-5 -0.00043260285747237504 -0.00014009207370691001

CELL_DATA 50

VECTORS liftinglineloading               float
-0.3245258331298828 -0.027629205957055092 -0.03292720392346382
-0.3388383686542511 -0.1411224901676178 -0.16818323731422424
-0.2840985953807831 -0.19836726784706116 -0.2364049106836319
-0.06853979825973511 -0.08118344098329544 -0.0967506617307663
0.10790086537599562 -0.020314859226346016 -0.024210307747125626
0.3147927224636078 -0.03333793208003044 -0.03973060101270676
0.38750800490379333 -0.015656698495149612 -0.018658924847841263
0.24715055525302887 0.002343118656426668 0.0027924200985580683
-0.40740153193473816 -0.13342636823654175 -0.1590113490819931
-1.4390195608139038 -0.2888227701187134 -0.3442055881023407
-2.3929619789123535 -0.41729220747947693 -0.49730950593948364
-2.8095650672912598 -0.5343261957168579 -0.6367852091789246
-3.2272934913635254 -0.6574741005897522 -0.7835471034049988
-3.501709222793579 -0.7262250185012817 -0.8654812574386597
-3.802524328231811 -0.7880213856697083 -0.9391273260116578
-4.133350849151611 -0.8446206450462341 -1.0065797567367554
-4.648799419403076 -0.8871687650680543 -1.0572865009307861
-5.568082809448242 -1.0080294609069824 -1.2013226747512817
-6.734142303466797 -1.1402453184127808 -1.3588913679122925
-7.838756084442138 -1.21812105178833 -1.4517000913619995
-9.122666358947754 -1.3149840831756592 -1.5671370029449463
-10.796195983886719 -1.416270136833191 -1.68784499168396
-12.793896675109863 -1.5236608982086182 -1.8158283233642578
-13.869182586669924 -1.5025062561035156 -1.7906172275543213
-15.802409172058105 -1.5999828577041626 -1.9067853689193726
-17.58653450012207 -1.620863914489746 -1.9316703081130981
-19.351119995117188 -1.6442136764526365 -1.959497570991516
-21.53046226501465 -1.6641420125961304 -1.98324716091156
-22.414344787597656 -1.6074470281600952 -1.9156807661056519
-23.7674503326416 -1.5618120431900024 -1.8612951040267944
-24.264612197875977 -1.4548100233078003 -1.7337751388549805
-24.73710060119629 -1.4533008337020874 -1.7319765090942383
-24.92748260498047 -1.3962634801864624 -1.6640020608901975
-24.94780158996582 -1.217540979385376 -1.451008915901184
-24.86672019958496 -1.1707643270492554 -1.395262598991394
-24.55301856994629 -1.1031914949417114 -1.3147324323654175
-24.108661651611328 -1.027463436126709 -1.2244832515716553
-23.11285972595215 -0.9737400412559509 -1.1604582071304321
-22.35479736328125 -0.9384657144546509 -1.118419885635376
-21.958803176879883 -0.8881819844245911 -1.0584940910339355
-21.349620819091797 -0.8170886039733888 -0.9737682938575745
-19.928024291992188 -0.8136525750160217 -0.9696733951568604
-18.521892547607422 -0.8900773525238038 -1.0607528686523438
-15.915665626525879 -0.8833265900611877 -1.0527076721191406
-11.146038055419922 -1.0404174327850342 -1.23992121219635
-8.758550643920898 -1.0801163911819458 -1.287232518196106
-6.56827974319458 -1.0810894966125488 -1.2883923053741455
-4.772817134857178 -1.0784651041030884 -1.2852646112442017
-3.0707180500030518 -1.0634868144989014 -1.2674142122268677
-1.5902698040008545 -1.0426541566848755 -1.2425868511199951