# vtk DataFile Version 4.0
 
ASCII
DATASET UNSTRUCTURED_GRID
POINTS 51 float
0.0034458015579730272 0.005885251797735691 -0.004327236674726009
0.00369006278924644 0.010102489031851292 -0.0035876201000064616
0.0038282745517790313 0.014181198552250862 -0.003559591481462121
0.0037079283501952887 0.018152941018342972 -0.003882437245920301
0.003376203589141369 0.022025756537914276 -0.004464223515242338
0.0030025020241737366 0.025821669027209282 -0.005053247325122356
0.002778564812615514 0.029573416337370872 -0.005275307688862085
0.0027836053632199764 0.03326338157057762 -0.0053317248821258545
0.0029529223684221506 0.0368625782430172 -0.005553869530558586
0.003183003049343825 0.04039493948221207 -0.005668201949447393
0.0033991164527833466 0.043852299451828 -0.005767996422946453
0.0035584971774369474 0.04722348600625992 -0.005980952177196741
0.0036438601091504097 0.050515882670879364 -0.006222726311534643
0.003657505614683032 0.053737279027700424 -0.006404228042811156
0.003614672925323248 0.05688709020614624 -0.006532208528369665
0.0035364592913538218 0.05996040627360344 -0.006662748288363218
0.003444118425250053 0.06295262277126312 -0.00684841861948371
0.0033548057544976473 0.06586261838674545 -0.007102160714566708
0.0032793087884783745 0.06869334727525711 -0.007390180137008429
0.0032226084731519227 0.07144912332296371 -0.0076630208641290665
0.003185397945344448 0.07413279265165329 -0.007888363674283028
0.0031655679922550917 0.07674434036016464 -0.00806621927767992
0.0031594964675605297 0.07928192615509033 -0.008217735216021538
0.0031630429439246655 0.08174338936805725 -0.008367510512471199
0.003172241384163499 0.08412709832191467 -0.00853424146771431
0.0031837469432502985 0.0864320620894432 -0.00872926414012909
0.003195086726918816 0.08865790069103241 -0.00895697996020317
0.0032047536224126816 0.09080475568771362 -0.00921562034636736
0.0032121820840984583 0.09287324547767639 -0.00949821900576353
0.003217642894014716 0.09486432373523712 -0.009793850593268871
0.0032219537533819675 0.09677906334400177 -0.01009020023047924
0.0032260718289762735 0.09861837327480316 -0.010377046652138233
0.003230798291042447 0.10038275271654129 -0.010648475959897041
0.0032366192899644375 0.10207228362560272 -0.010903704911470413
0.0032436484470963474 0.10368659347295761 -0.011146911419928074
0.003251639194786548 0.10522495955228804 -0.011386383324861526
0.0032600469421595335 0.10668640583753586 -0.011633260175585747
0.003268117550760508 0.10806991159915925 -0.011899222619831562
0.0032749890815466647 0.10937489569187164 -0.012190921232104301
0.0032797926105558872 0.11060161888599396 -0.012505368329584599
0.003281744895502925 0.11175122112035751 -0.012829523533582686
0.0032802252098917965 0.11282551288604735 -0.01314269844442606
0.0032748340163379903 0.11382669210433961 -0.013419782742857935
0.0032654285896569495 0.11475742608308791 -0.013630270957946779
0.003252137918025255 0.11562096327543259 -0.013737022876739502
0.0032353585120290518 0.11642061918973921 -0.013702216558158398
0.0032157283276319504 0.1171589270234108 -0.013496817089617252
0.0031940888147801156 0.11783689260482787 -0.013109299354255198
0.003171431832015514 0.11845351755619049 -0.01255116518586874
0.003148839809000492 0.11900567263364792 -0.011858195066452026
0.00312742218375206 0.11948835849761963 -0.011087418533861637

CELLS 50 150
2 0 1
2 1 2
2 2 3
2 3 4
2 4 5
2 5 6
2 6 7
2 7 8
2 8 9
2 9 10
2 10 11
2 11 12
2 12 13
2 13 14
2 14 15
2 15 16
2 16 17
2 17 18
2 18 19
2 19 20
2 20 21
2 21 22
2 22 23
2 23 24
2 24 25
2 25 26
2 26 27
2 27 28
2 28 29
2 29 30
2 30 31
2 31 32
2 32 33
2 33 34
2 34 35
2 35 36
2 36 37
2 37 38
2 38 39
2 39 40
2 40 41
2 41 42
2 42 43
2 43 44
2 44 45
2 45 46
2 46 47
2 47 48
2 48 49
2 49 50

CELL_TYPES 50
4
4
4
4
4
4
4
4
4
4
4
4
4
4
4
4
4
4
4
4
4
4
4
4
4
4
4
4
4
4
4
4
4
4
4
4
4
4
4
4
4
4
4
4
4
4
4
4
4
4

POINT_DATA 51

SCALARS zone float
LOOKUP_TABLE default
1.0
1.0
1.0
1.0
1.0
1.0
1.0
1.0
1.0
1.0
1.0
1.0
1.0
1.0
1.0
1.0
1.0
1.0
1.0
1.0
1.0
1.0
1.0
1.0
1.0
1.0
1.0
1.0
1.0
1.0
1.0
1.0
1.0
1.0
1.0
1.0
1.0
1.0
1.0
1.0
1.0
1.0
1.0
1.0
1.0
1.0
1.0
1.0
1.0
1.0
1.0

VECTORS normals float
0.00012213067384436727 0.0021086183842271566 0.000369808345567435
0.00019123655511066318 0.0041479733772575855 0.000383822713047266
8.932776836445555e-6 0.00402522599324584 -0.00014740850019734353
-0.0002260355104226619 0.003922278992831707 -0.00045231604599393904
-0.0003527131921146065 0.0038343642372637987 -0.0005854051560163498
-0.00029881938826292753 0.0037738294340670104 -0.00040554211591370404
-0.0001094483450287953 0.003720856970176101 -0.00013923879305366427
8.717876335140318e-5 0.003644582349807024 -0.00013928100815974176
0.00019969894492533058 0.0035657777916640048 -0.0001682384463492781
0.0002230970421805978 0.003494859207421541 -0.0001070632497430779
0.0001877470058389008 0.003414273960515857 -0.0001563751429785043
0.00012237193004693836 0.0033317920751869674 -0.00022736508981324732
4.9504207709105685e-5 0.0032568972092121835 -0.00021163786004763094
-1.4593665582651738e-5 0.0031856040004640813 -0.0001547410647617653
-6.0523194406414405e-5 0.0031115624587982893 -0.00012926019553560764
-8.52772718644701e-5 0.0030327679123729467 -0.0001581051474204287
-9.082671022042632e-5 0.0029511074535548687 -0.00021970621310174465
-8.240483293775469e-5 0.00287035945802927 -0.0002708806423470378
-6.609866250073537e-5 0.002793252933770418 -0.0002804300165735185
-4.695540701504797e-5 0.002719723852351308 -0.0002490919141564518
-2.8520251362351697e-5 0.002647607820108533 -0.0002015994396060705
-1.2950749805895612e-5 0.0025745665188878775 -0.00016468561079818755
-1.2625629324247711e-6 0.002499524038285017 -0.00015064520994201303
6.37255334368092e-6 0.0024225874803960323 -0.00015825337322894484
1.0352104254707228e-5 0.002344337059184909 -0.0001808769884519279
1.1422682291595265e-5 0.002265398623421788 -0.0002113688824465498
1.050324772222666e-5 0.0021863447036594152 -0.00024317803035955876
8.547682227799669e-6 0.0021076728589832783 -0.00027061975561082363
6.444628070312319e-6 0.0020297837909311056 -0.0002891152980737388
4.885740509052994e-6 0.0019529113778844476 -0.0002959905250463635
4.214472937746905e-6 0.001877024653367698 -0.0002915981167461723
4.422250640345737e-6 0.0018018438713625073 -0.0002791380393318832
5.273810074868379e-6 0.0017269559903070333 -0.00026332912966609
6.425153969757957e-6 0.0016519196797162294 -0.00024921740987338126
7.509945589845301e-6 0.0015763380797579885 -0.00024133888655342162
8.1992238847306e-6 0.001499906531535089 -0.00024317469797097147
8.239160706580151e-6 0.0014224767219275236 -0.00025641999673098326
7.471068784070667e-6 0.0013442451599985361 -0.00027883026632480323
5.837506250827573e-6 0.001265853294171393 -0.0003030728257726878
3.3778785564209097e-6 0.0011881624814122915 -0.00031930115073919296
2.163614567507466e-7 0.0011119472328573465 -0.00031866488279774785
-3.455363639659481e-6 0.0010377353755757213 -0.0002951295755337924
-7.398393336188747e-6 0.0009659563656896353 -0.00024378648959100246
-1.1348053703841288e-5 0.0008971365168690681 -0.00015862015425227582
-1.5035005162644666e-5 0.0008315958548337222 -3.5972407204099e-5
-1.8204780644737184e-5 0.0007689797785133123 0.00012010292266495527
-2.06348231586162e-5 0.000708137929905206 0.00029645845643244684
-2.214833330071997e-5 0.000647297129034996 0.0004728256317321211
-2.2624490156886168e-5 0.000584387977141887 0.0006255519692786038
-2.2004807760822587e-5 0.0005174190155230463 0.000731873617041856
-1.070886446541408e-5 0.00024134357227012515 0.00038538852822966874

CELL_DATA 50

VECTORS liftinglineloading               float
-0.038282644003629684 5.911826221296395e-16 0.1814562827348709
-0.1486343890428543 2.2037539944752462e-15 0.6764153242111206
-0.6462292671203613 4.756668522335871e-15 1.4600012302398682
1.8009111881256104 1.6690992013415862e-16 0.051230963319540024
6.826345920562743 4.3496591061941515e-17 0.013350747525691984
11.181884765625 -9.69196062313815e-16 -0.2974828779697418
9.51994800567627 -1.4914366611631772e-15 -0.45777824521064764
3.688506603240967 -6.152835152756621e-16 -0.18885375559329987
-3.8658032417297363 6.847397404944819e-15 2.1017251014709473
-10.258988380432129 1.2443469648779071e-14 3.819370985031128
-16.191713333129883 1.5657276975053654e-14 4.80580997467041
-21.167390823364258 1.6121669564649402e-14 4.948349475860596
-21.300539016723633 1.565825275700889e-14 4.806109428405762
-20.172616958618164 1.5665052737509448e-14 4.808196067810059
-18.288684844970703 1.5310588083808363e-14 4.699398040771484
-15.579905509948729 1.3835899487473891e-14 4.246760368347168
-12.775289535522461 1.1635309584573112e-14 3.5713162422180176
-10.463993072509766 1.0037579288254585e-14 3.0809123516082764
-9.4993896484375 9.440623501314697e-15 2.89768385887146
-8.595943450927734 8.53972010564797e-15 2.6211626529693604
-8.653553009033203 8.436198279933391e-15 2.589387893676758
-9.458237648010254 8.675389372809691e-15 2.66280460357666
-10.720857620239258 9.048141467841997e-15 2.7772164344787598
-12.066544532775879 9.084714656438543e-15 2.7884421348571777
-14.43730926513672 9.895419207618054e-15 3.037277936935425
-16.921398162841797 1.0275872526206795e-14 3.1540534496307373
-19.08123207092285 1.0479272241896865e-14 3.216484546661377
-22.152141571044922 1.0975940174914791e-14 3.368930578231811
-23.62623405456543 1.0754477481624523e-14 3.3009555339813232
-25.33506965637207 1.0507787606066181e-14 3.2252368927001953
-26.28548431396484 9.893997039299614e-15 3.03684139251709
-26.999265670776367 9.654423087531155e-15 2.9633071422576904
-27.346130371093754 9.020630684748124e-15 2.7687723636627197
-27.402944564819332 7.989771259148907e-15 2.452362537384033
-27.219148635864254 7.592986298304155e-15 2.3305742740631104
-26.762683868408203 7.087457130108528e-15 2.175408363342285
-26.535810470581055 6.426025195223642e-15 1.9723899364471436
-25.216259002685547 6.0136078178208395e-15 1.8458033800125124
-24.08176612854004 5.729881426643803e-15 1.7587170600891113
-22.9501953125 5.383845174284372e-15 1.6525053977966309
-21.913593292236328 4.954988581441257e-15 1.5208731889724731
-19.815338134765625 4.832799420118614e-15 1.4833687543869019
-16.77818489074707 5.145123761177324e-15 1.5792328119277954
-14.24740982055664 5.058974157694457e-15 1.5527902841567993
-11.722206115722656 5.839810633087887e-15 1.7924585342407227
-10.218066215515137 6.020465396561811e-15 1.8479082584381104
-8.39917278289795 5.950787619287724e-15 1.8265215158462524
-6.784090995788574 5.888546367774058e-15 1.8074173927307127
-4.458583354949951 5.742167216027253e-15 1.7624880075454712
-2.3452510833740234 5.560843720041472e-15 1.7068330049514768