# vtk DataFile Version 4.0
 
ASCII
DATASET UNSTRUCTURED_GRID
POINTS 51 float
0.0034458015579730272 0.0020533979404717684 0.007010329514741898
0.00369006278924644 -8.399440412176773e-5 0.010720272548496723
0.0038282745517790313 -0.0015053338138386607 0.01454341970384121
0.0037079283501952887 -0.002560373628512025 0.018386056646704674
0.003376203589141369 -0.0033382545225322247 0.022224295884370804
0.0030025020241737366 -0.004083031322807074 0.025992743670940396
0.002778564812615514 -0.005157535895705223 0.0295941811054945
0.0027836053632199764 -0.006366564426571131 0.03308091312646866
0.0029529223684221506 -0.007388814352452755 0.03653902933001518
0.003183003049343825 -0.008489514701068401 0.03989746421575546
0.0033991164527833466 -0.009578226134181023 0.043180450797080994
0.0035584971774369474 -0.010531126521527767 0.04642116650938988
0.0036438601091504097 -0.011429999023675919 0.04959769919514656
0.003657505614683032 -0.012361226603388786 0.0526868999004364
0.003614672925323248 -0.0133182629942894 0.05569052696228027
0.0035364592913538218 -0.014246731065213682 0.05862314626574516
0.003444118425250053 -0.015095657669007778 0.06149841472506523
0.0033548057544976473 -0.015852494165301323 0.06431970000267029
0.0032793087884783745 -0.016550010070204735 0.06707821786403656
0.0032226084731519227 -0.01723615638911724 0.06976112723350525
0.003185397945344448 -0.017942270264029503 0.07236001640558243
0.0031655679922550917 -0.018668344244360924 0.07487490028142929
0.0031594964675605297 -0.01939387060701847 0.07731126993894577
0.0031630429439246655 -0.02009499818086624 0.07967551797628403
0.003172241384163499 -0.02075359970331192 0.08197250217199326
0.0031837469432502985 -0.021358681842684746 0.08420515805482864
0.003195086726918816 -0.02190597914159298 0.08637464046478271
0.0032047536224126816 -0.022397205233573914 0.08848048746585846
0.0032121820840984583 -0.02283911406993866 0.09052088111639023
0.003217642894014716 -0.023242300376296043 0.09249299764633179
0.0032219537533819675 -0.023618703708052635 0.09439362585544586
0.0032260718289762735 -0.023978235200047493 0.09622011333703995
0.003230798291042447 -0.0243266299366951 0.09797092527151108
0.0032366192899644375 -0.02466464601457119 0.09964586049318314
0.0032436484470963474 -0.024988234043121338 0.10124599188566208
0.003251639194786548 -0.025289354845881462 0.10277348756790161
0.0032600469421595335 -0.02555721066892147 0.10423123836517333
0.003268117550760508 -0.02578047476708889 0.1056222766637802
0.0032749890815466647 -0.02595269866287708 0.10694832354784013
0.0032797926105558872 -0.0260767787694931 0.10820861160755159
0.003281744895502925 -0.02616536058485508 0.109399750828743
0.0032802252098917965 -0.02623850107192993 0.11051636934280394
0.0032748340163379903 -0.026320550590753552 0.1115519404411316
0.0032654285896569495 -0.02644108608365059 0.11249853670597078
0.003252137918025255 -0.026636119931936264 0.11334650963544847
0.0032353585120290518 -0.02694232575595379 0.11408603191375732
0.0032157283276319504 -0.027387853711843487 0.11470956355333328
0.0031940888147801156 -0.02798387967050076 0.11521410197019576
0.003171431832015514 -0.028719251975417137 0.11560264974832536
0.003148839809000492 -0.02955927699804306 0.11588449031114578
0.00312742218375206 -0.030448660254478458 0.11607445031404495

CELLS 50 150
2 0 1
2 1 2
2 2 3
2 3 4
2 4 5
2 5 6
2 6 7
2 7 8
2 8 9
2 9 10
2 10 11
2 11 12
2 12 13
2 13 14
2 14 15
2 15 16
2 16 17
2 17 18
2 18 19
2 19 20
2 20 21
2 21 22
2 22 23
2 23 24
2 24 25
2 25 26
2 26 27
2 27 28
2 28 29
2 29 30
2 30 31
2 31 32
2 32 33
2 33 34
2 34 35
2 35 36
2 36 37
2 37 38
2 38 39
2 39 40
2 40 41
2 41 42
2 42 43
2 43 44
2 44 45
2 45 46
2 46 47
2 47 48
2 48 49
2 49 50

CELL_TYPES 50
4
4
4
4
4
4
4
4
4
4
4
4
4
4
4
4
4
4
4
4
4
4
4
4
4
4
4
4
4
4
4
4
4
4
4
4
4
4
4
4
4
4
4
4
4
4
4
4
4
4

POINT_DATA 51

SCALARS zone float
LOOKUP_TABLE default
1.0
1.0
1.0
1.0
1.0
1.0
1.0
1.0
1.0
1.0
1.0
1.0
1.0
1.0
1.0
1.0
1.0
1.0
1.0
1.0
1.0
1.0
1.0
1.0
1.0
1.0
1.0
1.0
1.0
1.0
1.0
1.0
1.0
1.0
1.0
1.0
1.0
1.0
1.0
1.0
1.0
1.0
1.0
1.0
1.0
1.0
1.0
1.0
1.0
1.0
1.0

VECTORS normals float
0.00012213067384436727 -0.0010686961468309164 0.0018549712840467691
0.00019123655511066318 -0.0017793659353628755 0.003766545094549656
8.932776836445555e-6 -0.0012381896376609802 0.0038328918162733316
-0.0002260355104226619 -0.000916460412554443 0.003840437857434153
-0.0003527131921146065 -0.0007613289053551853 0.0038033442106097937
-0.00029881938826292753 -0.00090964074479416 0.003684943076223135
-0.0001094483450287953 -0.001141766319051385 0.003544084262102842
8.717876335140318e-5 -0.001115639228373766 0.003472423879429698
0.00019969894492533058 -0.0010614754864946008 0.0034082760103046894
0.0002230970421805978 -0.0010947056580334902 0.003320711199194193
0.0001877470058389008 -0.001020805910229683 0.0032618513796478514
0.00012237193004693836 -0.0009258867357857526 0.0032086239662021403
4.9504207709105685e-5 -0.0009150499245151878 0.003132866695523262
-1.4593665582651738e-5 -0.0009441316942684352 0.0030464131850749254
-6.0523194406414405e-5 -0.000942752172704786 0.002968121785670519
-8.52772718644701e-5 -0.0008886974537745119 0.0029039448127150536
-9.082671022042632e-5 -0.0008028818992897868 0.002848278032615781
-8.240483293775469e-5 -0.0007271762005984783 0.0027899022679775953
-6.609866250073537e-5 -0.0006918307626619935 0.002720711985602975
-4.695540701504797e-5 -0.0006961305043660104 0.0026408988051116467
-2.8520251362351697e-5 -0.0007160937529988587 0.0025568886194378138
-1.2950749805895612e-5 -0.0007257997640408576 0.002475626999512315
-1.2625629324247711e-6 -0.0007133273757062852 0.0024003079161047935
6.37255334368092e-6 -0.0006798641406930983 0.002330613322556019
1.0352104254707228e-5 -0.0006318417727015913 0.0022648198064416647
1.1422682291595265e-5 -0.000576190126594156 0.002201070776209235
1.050324772222666e-5 -0.0005192612879909575 0.0021376637741923332
8.547682227799669e-6 -0.00046656720223836606 0.0020731219556182623
6.444628070312319e-6 -0.00042254742584191263 0.0020062560215592384
4.885740509052994e-6 -0.00038979490636847913 0.0019363710889592765
4.214472937746905e-6 -0.00036796764470636845 0.001863558660261333
4.422250640345737e-6 -0.0003539629396982491 0.0017886501736938951
5.273810074868379e-6 -0.0003432053199503571 0.0017128717154264448
6.425153969757957e-6 -0.0003308020532131195 0.0016375341219827533
7.509945589845301e-6 -0.00031235499773174524 0.001563815982080996
8.1992238847306e-6 -0.0002844887494575232 0.0014926217263564467
8.239160706580151e-6 -0.0002455596986692399 0.0014243916375562549
7.471068784070667e-6 -0.00019774417160078883 0.001358542824164033
5.837506250827573e-6 -0.00014815203030593693 0.0012931699166074395
3.3778785564209097e-6 -0.00010633056808728725 0.0012257149210199714
2.163614567507466e-7 -8.086133311735466e-5 0.0011538784019649029
-3.455363639659481e-6 -7.759533036733046e-5 0.0010760924778878689
-7.398393336188747e-6 -0.00010129217116627842 0.0009910819353535771
-1.1348053703841288e-5 -0.000157784583279863 0.0008972838404588402
-1.5035005162644666e-5 -0.0002506195451132953 0.0007937477785162629
-1.8204780644737184e-5 -0.0003758663951884955 0.0006815269589424133
-2.06348231586162e-5 -0.0005207772483117878 0.0005640372401103377
-2.214833330071997e-5 -0.0006656994228251278 0.0004465444362722337
-2.2624490156886168e-5 -0.000787699013017118 0.00033519373391754925
-2.2004807760822587e-5 -0.0008647039649076759 0.0002358992933295667
-1.070886446541408e-5 -0.0004446911043487489 9.497813880443573e-5

CELL_DATA 50

VECTORS liftinglineloading               float
-0.2950367331504822 0.19784851372241974 0.07201097160577774
-0.3491494357585907 0.2580313980579376 0.09391575306653976
-0.37487566471099854 0.19341036677360535 0.07039561122655869
0.16211391985416412 0.13117241859436035 0.04774285480380058
0.1328468918800354 0.1165790557861328 0.0424313060939312
-0.0005088814650662243 0.0027802821714431047 0.0010119399521499872
0.026464918628334996 -0.0024165853392332792 -0.0008795651374384761
-0.083148293197155 -0.04807352274656296 -0.017497330904006958
-0.7824164032936096 -0.23402276635169983 -0.08517732471227646
-1.390818476676941 -0.43273234367370605 -0.1575016975402832
-1.9652154445648193 -0.6429430246353149 -0.23401212692260742
-2.70466947555542 -0.8969162106513977 -0.32645079493522644
-3.1388797760009766 -1.0469458103179932 -0.38105711340904236
-3.5604412555694576 -1.1720842123031616 -0.426603764295578
-3.8282790184020996 -1.247962474822998 -0.4542211890220642
-4.039881706237793 -1.3175016641616821 -0.4795313775539398
-4.160408973693848 -1.3092148303985596 -0.4765152335166931
-4.220381259918213 -1.3305823802947998 -0.48429238796234125
-4.319668769836426 -1.4110634326934814 -0.513585090637207
-4.7459845542907715 -1.4732216596603394 -0.5362088084220886
-5.265584945678711 -1.5664681196212769 -0.5701477527618408
-6.133055686950684 -1.6950749158859253 -0.6169567704200745
-7.143303394317628 -1.8220697641372683 -0.6631791591644287
-8.471610069274902 -1.8986102342605593 -0.691037654876709
-10.320523262023926 -2.117766857147217 -0.7708040475845337
-12.308855056762695 -2.2430596351623535 -0.8164069652557373
-14.187874794006348 -2.3330111503601074 -0.8491466045379639
-16.905736923217773 -2.4961600303649902 -0.908527910709381
-18.975521087646484 -2.5239787101745605 -0.9186531901359559
-20.667457580566406 -2.4736788272857666 -0.9003454446792604
-21.990676879882812 -2.3441672325134277 -0.8532071113586426
-23.16820526123047 -2.301132917404175 -0.8375439047813416
-24.000558853149414 -2.165799856185913 -0.7882866859436035
-24.547313690185547 -1.8952009677886963 -0.6897967457771301
-24.881935119628906 -1.797271728515625 -0.6541534066200256
-24.818132400512695 -1.6766619682312012 -0.6102550625801086
-24.642704010009766 -1.5429675579071045 -0.5615942478179932
-23.85295867919922 -1.4516414403915405 -0.528354287147522
-23.298080444335938 -1.3920767307281494 -0.5066745281219482
-22.76915168762207 -1.319722294807434 -0.4803396165370941
-22.642391204833984 -1.2078384160995483 -0.43961721658706665
-22.586528778076172 -1.2034060955047607 -0.4380039870738983
-18.770965576171875 -1.3200639486312866 -0.48046398162841797
-13.836902618408205 -1.3249324560165405 -0.48223596811294556
-10.442103385925293 -1.5735094547271729 -0.5727106332778931
-8.353631973266602 -1.6379780769348145 -0.5961752533912659
-6.281586170196533 -1.6535146236419676 -0.6018301248550415
-4.562289237976074 -1.6620681285858154 -0.6049433350563049
-2.9639744758605957 -1.6450270414352417 -0.5987408757209778
-1.539547324180603 -1.6203913688659668 -0.5897742509841919