# vtk DataFile Version 4.0
 
ASCII
DATASET UNSTRUCTURED_GRID
POINTS 51 float
0.0034458015579730272 -0.005283459555357695 -0.005044424440711737
0.00369006278924644 -0.005287394858896732 -0.0093260258436203
0.0038282745517790313 -0.005968052428215742 -0.013347637839615347
0.0037079283501952887 -0.0069756791926920405 -0.01720297895371914
0.003376203589141369 -0.008221134543418884 -0.020915931090712547
0.0030025020241737366 -0.009460363537073135 -0.024551892653107643
0.002778564812615514 -0.010330533608794212 -0.028208080679178238
0.0027836053632199764 -0.01102684997022152 -0.031832192093133926
0.0029529223684221506 -0.011870614252984524 -0.035338133573532104
0.003183003049343825 -0.012596596963703632 -0.03879697620868683
0.0033991164527833466 -0.013295238837599754 -0.04218447953462601
0.0035584971774369474 -0.014090360142290592 -0.045467473566532135
0.0036438601091504097 -0.014900180511176586 -0.04866786673665047
0.003657505614683032 -0.015638314187526703 -0.05180880799889564
0.003614672925323248 -0.01631130836904049 -0.054888542741537094
0.0035364592913538218 -0.01697354204952717 -0.05789249762892723
0.003444118425250053 -0.017675984650850296 -0.060807019472122185
0.0033548057544976473 -0.01843118667602539 -0.06362874060869217
0.0032793087884783745 -0.01920638047158718 -0.06636644899845123
0.0032226084731519227 -0.019953612238168716 -0.06903298199176788
0.003185397945344448 -0.020641546696424484 -0.07163675129413605
0.0031655679922550917 -0.02127019129693508 -0.07417774200439453
0.0031594964675605297 -0.02186005190014839 -0.0766504630446434
0.0031630429439246655 -0.022434979677200317 -0.0790485218167305
0.003172241384163499 -0.023013105615973473 -0.08136706799268723
0.0031837469432502985 -0.02360541746020317 -0.0836031436920166
0.003195086726918816 -0.0242161862552166 -0.08575562387704849
0.0032047536224126816 -0.024843694642186165 -0.08782494813203812
0.0032121820840984583 -0.02548118866980076 -0.08981294184923172
0.003217642894014716 -0.026118077337741855 -0.09172243624925613
0.0032219537533819675 -0.026742415502667424 -0.09355662763118744
0.0032260718289762735 -0.02734429761767387 -0.09531818330287933
0.003230798291042447 -0.027917984873056412 -0.09700862318277359
0.0032366192899644375 -0.028462719172239307 -0.09862817078828812
0.0032436484470963474 -0.028982551768422127 -0.10017572343349457
0.003251639194786548 -0.029485519975423813 -0.10164912790060042
0.0032600469421595335 -0.02998242527246475 -0.10304550826549531
0.003268117550760508 -0.03048459067940712 -0.10436180979013443
0.0032749890815466647 -0.030998464673757557 -0.10559631139039995
0.0032797926105558872 -0.03152115270495415 -0.10674979537725447
0.003281744895502925 -0.03204001113772392 -0.10782564431428909
0.0032802252098917965 -0.03253497555851936 -0.10882923752069472
0.0032748340163379903 -0.03298170492053032 -0.1097670868039131
0.0032654285896569495 -0.033350616693496704 -0.11064713448286057
0.003252137918025255 -0.03360569477081299 -0.1114790141582489
0.0032353585120290518 -0.03371027857065201 -0.11227256059646606
0.0032157283276319504 -0.03363620489835739 -0.11303532123565674
0.0031940888147801156 -0.03337230160832405 -0.11377028375864029
0.003171431832015514 -0.03292972221970558 -0.11447446048259735
0.003148839809000492 -0.03234316036105156 -0.11513855308294295
0.00312742218375206 -0.031667910516262054 -0.11574774980545044

CELLS 50 150
2 0 1
2 1 2
2 2 3
2 3 4
2 4 5
2 5 6
2 6 7
2 7 8
2 8 9
2 9 10
2 10 11
2 11 12
2 12 13
2 13 14
2 14 15
2 15 16
2 16 17
2 17 18
2 18 19
2 19 20
2 20 21
2 21 22
2 22 23
2 23 24
2 24 25
2 25 26
2 26 27
2 27 28
2 28 29
2 29 30
2 30 31
2 31 32
2 32 33
2 33 34
2 34 35
2 35 36
2 36 37
2 37 38
2 38 39
2 39 40
2 40 41
2 41 42
2 42 43
2 43 44
2 44 45
2 45 46
2 46 47
2 47 48
2 48 49
2 49 50

CELL_TYPES 50
4
4
4
4
4
4
4
4
4
4
4
4
4
4
4
4
4
4
4
4
4
4
4
4
4
4
4
4
4
4
4
4
4
4
4
4
4
4
4
4
4
4
4
4
4
4
4
4
4
4

POINT_DATA 51

SCALARS zone float
LOOKUP_TABLE default
1.0
1.0
1.0
1.0
1.0
1.0
1.0
1.0
1.0
1.0
1.0
1.0
1.0
1.0
1.0
1.0
1.0
1.0
1.0
1.0
1.0
1.0
1.0
1.0
1.0
1.0
1.0
1.0
1.0
1.0
1.0
1.0
1.0
1.0
1.0
1.0
1.0
1.0
1.0
1.0
1.0
1.0
1.0
1.0
1.0
1.0
1.0
1.0
1.0
1.0
1.0

VECTORS normals float
0.00012213067384436727 -1.96763789972465e-6 -0.002140800468623638
0.00019123655511066318 -0.0003422964655328542 -0.0041516064666211605
8.932776836445555e-6 -0.0008441421668976546 -0.003938476555049419
-0.0002260355104226619 -0.0011265409411862493 -0.003784146858379245
-0.0003527131921146065 -0.0012423419393599033 -0.0036744570825248952
-0.00029881938826292753 -0.0010546996491029859 -0.0036460747942328453
-0.0001094483450287953 -0.0007832434494048357 -0.003640150185674429
8.717876335140318e-5 -0.0007700400892645121 -0.0035650269128382206
0.00019969894492533058 -0.0007848733803257346 -0.00348239135928452
0.0002230970421805978 -0.0007123126415535808 -0.0034231729805469513
0.0001877470058389008 -0.0007468818803317845 -0.0033352491445839405
0.00012237193004693836 -0.0008024705457501113 -0.0032416931353509426
4.9504207709105685e-5 -0.0007739768479950726 -0.0031706669833511114
-1.4593665582651738e-5 -0.0007055645692162216 -0.003110337071120739
-6.0523194406414405e-5 -0.0006676135817542672 -0.0030418450478464365
-8.52772718644701e-5 -0.0006823377916589379 -0.002959238598123193
-9.082671022042632e-5 -0.0007288228371180594 -0.0028681219555437565
-8.240483293775469e-5 -0.0007651980267837644 -0.002779714297503233
-6.609866250073537e-5 -0.0007612129556946456 -0.0027021211571991444
-4.695540701504797e-5 -0.0007175827049650252 -0.00263515068218112
-2.8520251362351697e-5 -0.0006582890055142343 -0.0025723774451762438
-1.2950749805895612e-5 -0.000609252427238971 -0.0025068556424230337
-1.2625629324247711e-6 -0.0005823943647556007 -0.002435391303151846
6.37255334368092e-6 -0.0005765270325355232 -0.0023583024740219116
1.0352104254707228e-5 -0.0005852189497090876 -0.002277312334626913
1.1422682291595265e-5 -0.0006015400285832584 -0.002194278175011277
1.050324772222666e-5 -0.0006191383581608534 -0.00211090175434947
8.547682227799669e-6 -0.0006325019639916718 -0.0020286599174141884
6.444628070312319e-6 -0.0006371912313625216 -0.001948742428794503
4.885740509052994e-6 -0.0006306132418103516 -0.0018718440551310775
4.214472937746905e-6 -0.0006131100235506892 -0.0017978729447349906
4.422250640345737e-6 -0.000587784219533205 -0.0017259980086237192
5.273810074868379e-6 -0.0005592113011516631 -0.0016549930442124605
6.425153969757957e-6 -0.0005322840879671276 -0.0015835472149774432
7.509945589845301e-6 -0.0005114006344228983 -0.0015104818157851696
8.1992238847306e-6 -0.0004999363445676863 -0.0014348926488310099
8.239160706580151e-6 -0.0004995348863303661 -0.0013563391985371709
7.471068784070667e-6 -0.0005080199334770441 -0.0012754047056660056
5.837506250827573e-6 -0.0005182815948501229 -0.0011939940741285682
3.3778785564209097e-6 -0.0005207725334912539 -0.0011146656470373273
2.163614567507466e-7 -0.0005069112521596253 -0.0010397187434136868
-3.455363639659481e-6 -0.000470846745884046 -0.0009707211283966898
-7.398393336188747e-6 -0.0004078194033354521 -0.0009089482482522726
-1.1348053703841288e-5 -0.00031199646764434874 -0.0008559629204683006
-1.5035005162644666e-5 -0.00017983101133722812 -0.0008127155015245081
-1.8204780644737184e-5 -1.5253642231982667e-5 -0.0007781528984196484
-2.06348231586162e-5 0.0001689877244643867 -0.000748859194573015
-2.214833330071997e-5 0.0003532403788994998 -0.000719568517524749
-2.2624490156886168e-5 0.0005145705072209239 -0.000684135768096894
-2.2004807760822587e-5 0.0006309059681370854 -0.0006366467569023371
-1.070886446541408e-5 0.0003376247186679393 -0.0003045990306418389

CELL_DATA 50

VECTORS liftinglineloading               float
-0.606157660484314 0.5739006400108337 -0.10119416564702988
-0.912878453731537 1.0813353061676025 -0.19066859781742096
-1.205739974975586 1.5526453256607056 -0.27377328276634216
-0.35798048973083496 0.6954669952392578 -0.12262959778308868
0.3394222557544708 0.25190967321395874 -0.04441847279667854
0.9112885594367981 0.2812078893184662 -0.049584537744522095
0.5884994268417358 0.29183122515678406 -0.051457721740007394
-0.33082982897758484 0.6275618076324463 -0.11065607517957687
-1.6762081384658813 0.9269479513168334 -0.16344593465328217
-3.8580646514892583 1.3964487314224243 -0.2462315857410431
-6.422243595123291 1.9887412786483765 -0.3506687581539154
-8.132550239562988 2.4425885677337646 -0.43069425225257874
-10.581143379211426 2.68782639503479 -0.4739363193511963
-13.198219299316404 2.5936062335968018 -0.4573227763175965
-14.147480010986328 2.695225477218628 -0.47524094581604
-14.643379211425781 2.951195001602173 -0.5203753113746643
-14.232823371887205 3.063344717025757 -0.5401503443717957
-13.463182449340822 3.0018529891967773 -0.5293076634407043
-12.742305755615234 2.8968725204467773 -0.5107967853546143
-12.293570518493652 2.7576029300689697 -0.4862398207187653
-11.913643836975098 2.667755365371704 -0.4703972339630127
-11.580648422241211 2.5795180797576904 -0.4548386335372924
-11.47512435913086 2.5382418632507324 -0.4475605189800262
-10.626666069030762 2.323176145553589 -0.40963864326477045
-10.680150985717773 2.3732759952545166 -0.4184725880622864
-10.748770713806152 2.341480016708374 -0.412866085767746
-10.657608985900879 2.2988343238830566 -0.40534651279449463
-11.236839294433594 2.3808176517486572 -0.41980239748954773
-12.865143775939941 2.518550395965576 -0.4440883994102478
-12.569324493408203 2.436506748199463 -0.4296219050884247
-13.723642349243166 2.464211940765381 -0.4345070421695709
-14.368017196655272 2.4088962078094482 -0.4247533977031708
-15.11177158355713 2.268033504486084 -0.39991551637649536
-15.751379013061522 2.208003282546997 -0.38933056592941284
-16.162202835083008 2.1344563961029053 -0.37636223435401917
-16.457319259643555 2.0276670455932617 -0.35753244161605835
-16.543439865112305 1.8209375143051147 -0.32108041644096375
-16.489850997924805 1.713546633720398 -0.30214449763298035
-16.079570770263672 1.6240370273590086 -0.28636154532432556
-15.668267250061035 1.516727328300476 -0.26743993163108826
-15.151387214660646 1.4223324060440063 -0.2507955729961395
-13.825510025024414 1.35633385181427 -0.2391582429409027
-11.635884284973145 1.3713295459747314 -0.2418023943901062
-9.873283386230469 1.3281456232070923 -0.23418790102005005
-8.139117240905762 1.4743183851242065 -0.2599621117115021
-6.869158744812012 1.5214763879776 -0.2682773470878601
-5.460789680480957 1.4975736141204834 -0.2640626132488251
-4.161330699920654 1.4918841123580933 -0.2630594074726105
-2.8196558952331543 1.468200922012329 -0.25888341665267944
-1.5284231901168823 1.4303852319717407 -0.25221550464630127