# vtk DataFile Version 4.0
 
ASCII
DATASET UNSTRUCTURED_GRID
POINTS 51 float
0.0034458015579730272 -0.0057030050083994865 -0.0045647453516721725
0.00369006278924644 -0.006080091465264559 -0.008829710073769093
0.0038282745517790313 -0.007108665537089109 -0.012776696123182774
0.0037079283501952887 -0.008448473177850246 -0.016529545187950134
0.003376203589141369 -0.01001279428601265 -0.020119821652770042
0.0030025020241737366 -0.011564201675355434 -0.023633940145373344
0.002778564812615514 -0.012749719433486462 -0.027200374752283093
0.0027836053632199764 -0.013759247958660126 -0.030750008299946785
0.0029529223684221506 -0.014905364252626896 -0.034169070422649384
0.003183003049343825 -0.015930041670799255 -0.037551477551460266
0.0033991164527833466 -0.016921266913414 -0.040865201503038406
0.0035584971774369474 -0.017999494448304176 -0.044066399335861206
0.0036438601091504097 -0.019085165113210678 -0.04718403518199921
0.003657505614683032 -0.020094240084290504 -0.05024868994951248
0.003614672925323248 -0.021033091470599174 -0.05325805023312569
0.0035364592913538218 -0.021954616531729698 -0.056192860007286065
0.003444118425250053 -0.022908402606844902 -0.059035066515207284
0.0033548057544976473 -0.023906661197543144 -0.061780232936143875
0.0032793087884783745 -0.024917511269450188 -0.06443995982408524
0.0032226084731519227 -0.02589430473744869 -0.06703121960163116
0.003185397945344448 -0.026806553825736046 -0.06956511735916138
0.0031655679922550917 -0.027654267847537994 -0.07204165309667587
0.0031594964675605297 -0.0284573957324028 -0.07445355504751205
0.0031630429439246655 -0.029239140450954437 -0.07679238170385361
0.003172241384163499 -0.030017141252756122 -0.07905171811580658
0.0031837469432502985 -0.03080208599567413 -0.08122766762971878
0.003195086726918816 -0.031598132103681564 -0.08331871777772903
0.0032047536224126816 -0.0324036069214344 -0.08532547950744629
0.0032121820840984583 -0.03321193903684616 -0.08725034445524216
0.003217642894014716 -0.03401282802224159 -0.08909706026315689
0.0032219537533819675 -0.034794650971889496 -0.09086986631155014
0.0032260718289762735 -0.03554777055978775 -0.09257225692272186
0.003230798291042447 -0.03626660630106926 -0.09420626610517502
0.0032366192899644375 -0.03695042058825493 -0.0957721695303917
0.0032436484470963474 -0.03760315477848053 -0.09726852178573608
0.003251639194786548 -0.038232624530792236 -0.09869249165058136
0.0032600469421595335 -0.03884933888912201 -0.1000402420759201
0.003268117550760508 -0.0394643172621727 -0.10130777209997177
0.0032749890815466647 -0.040083833038806915 -0.1024927943944931
0.0032797926105558872 -0.040705062448978424 -0.10359632968902588
0.003281744895502925 -0.0413157120347023 -0.10462286323308945
0.0032802252098917965 -0.041896265000104904 -0.10557949542999269
0.0032748340163379903 -0.042423028498888016 -0.10647484660148622
0.0032654285896569495 -0.04286723956465721 -0.10731938481330872
0.003252137918025255 -0.04319385439157486 -0.10812587291002274
0.0032353585120290518 -0.04336719587445259 -0.10890728980302812
0.0032157283276319504 -0.04335988685488701 -0.10967359691858292
0.0031940888147801156 -0.04316104203462601 -0.11042876541614532
0.003171431832015514 -0.0427815206348896 -0.11116883158683777
0.003148839809000492 -0.04225507006049156 -0.11188152432441711
0.00312742218375206 -0.04163548722863197 -0.11254725605249405

CELLS 50 150
2 0 1
2 1 2
2 2 3
2 3 4
2 4 5
2 5 6
2 6 7
2 7 8
2 8 9
2 9 10
2 10 11
2 11 12
2 12 13
2 13 14
2 14 15
2 15 16
2 16 17
2 17 18
2 18 19
2 19 20
2 20 21
2 21 22
2 22 23
2 23 24
2 24 25
2 25 26
2 26 27
2 27 28
2 28 29
2 29 30
2 30 31
2 31 32
2 32 33
2 33 34
2 34 35
2 35 36
2 36 37
2 37 38
2 38 39
2 39 40
2 40 41
2 41 42
2 42 43
2 43 44
2 44 45
2 45 46
2 46 47
2 47 48
2 48 49
2 49 50

CELL_TYPES 50
4
4
4
4
4
4
4
4
4
4
4
4
4
4
4
4
4
4
4
4
4
4
4
4
4
4
4
4
4
4
4
4
4
4
4
4
4
4
4
4
4
4
4
4
4
4
4
4
4
4

POINT_DATA 51

SCALARS zone float
LOOKUP_TABLE default
1.0
1.0
1.0
1.0
1.0
1.0
1.0
1.0
1.0
1.0
1.0
1.0
1.0
1.0
1.0
1.0
1.0
1.0
1.0
1.0
1.0
1.0
1.0
1.0
1.0
1.0
1.0
1.0
1.0
1.0
1.0
1.0
1.0
1.0
1.0
1.0
1.0
1.0
1.0
1.0
1.0
1.0
1.0
1.0
1.0
1.0
1.0
1.0
1.0
1.0
1.0

VECTORS normals float
0.00012213067384436727 -0.00018854319932870567 -0.0021324825938791037
0.00019123655511066318 -0.0007028302643448114 -0.0041059753857553005
8.932776836445555e-6 -0.0011841908562928438 -0.003849917557090521
-0.0002260355104226619 -0.0014520642580464482 -0.0036715625319629908
-0.0003527131921146065 -0.0015578644815832376 -0.0035521974787116046
-0.00029881938826292753 -0.0013684624573215842 -0.0035402772482484583
-0.0001094483450287953 -0.0010975230252370238 -0.0035580340772867203
8.717876335140318e-5 -0.0010778224095702171 -0.0034843476023525
0.00019969894492533058 -0.0010853970889002085 -0.003400733694434166
0.0002230970421805978 -0.001007951213978231 -0.003348064608871937
0.0001877470058389008 -0.0010347259230911732 -0.0032574625220149755
0.00012237193004693836 -0.0010819490998983383 -0.0031594177708029747
4.9504207709105685e-5 -0.001047373516485095 -0.003091145306825638
-1.4593665582651738e-5 -0.0009739634115248919 -0.0030370072927325964
-6.0523194406414405e-5 -0.0009301873506046832 -0.0029720833990722895
-8.52772718644701e-5 -0.0009376559173688293 -0.002888508141040802
-9.082671022042632e-5 -0.0009760227403603493 -0.002793686930090189
-8.240483293775469e-5 -0.0010045543313026428 -0.0027024452574551105
-6.609866250073537e-5 -0.0009938216535374522 -0.002625494496896863
-4.695540701504797e-5 -0.000944520637858659 -0.002562581794336438
-2.8520251362351697e-5 -0.0008799814386293293 -0.0025052151177078485
-1.2950749805895612e-5 -0.0008254209533333777 -0.002444216515868902
-1.2625629324247711e-6 -0.0007924364763312042 -0.002375365002080798
6.37255334368092e-6 -0.0007798727601766586 -0.0022990808356553316
1.0352104254707228e-5 -0.0007814728305675089 -0.002217641333118081
1.1422682291595265e-5 -0.0007904949598014355 -0.0021335005294531584
1.050324772222666e-5 -0.0008007595897652209 -0.00204890756867826
8.547682227799669e-6 -0.0008069044561125338 -0.0019658140372484922
6.444628070312319e-6 -0.0008046106086112559 -0.0018857920076698065
4.885740509052994e-6 -0.0007913555018603802 -0.00180975953117013
4.214472937746905e-6 -0.000767471909057349 -0.0017375954193994403
4.422250640345737e-6 -0.0007359781302511692 -0.0016682012937963007
5.273810074868379e-6 -0.0007013254798948765 -0.0015999567694962025
6.425153969757957e-6 -0.0006682737730443478 -0.001531129702925682
7.509945589845301e-6 -0.0006411017384380102 -0.0014601624570786953
8.1992238847306e-6 -0.0006230931030586362 -0.0013858601450920105
8.239160706580151e-6 -0.0006158467731438577 -0.0013076405739411712
7.471068784070667e-6 -0.0006172456196509302 -0.0012262745294719934
5.837506250827573e-6 -0.0006203727680258453 -0.001144279376603663
3.3778785564209097e-6 -0.0006159403128549457 -0.0010650355834513903
2.163614567507466e-7 -0.0005955997621640563 -0.0009915820555761456
-3.455363639659481e-6 -0.0005536589305847883 -0.0009259902290068567
-7.398393336188747e-6 -0.00048548757331445813 -0.0008699456229805945
-1.1348053703841288e-5 -0.00038541131652891636 -0.0008255134453065693
-1.5035005162644666e-5 -0.0002499795227777213 -0.0007939495844766498
-1.8204780644737184e-5 -8.301609341287985e-5 -0.0007738623535260558
-2.06348231586162e-5 0.00010307729826308787 -0.000760737806558609
-2.214833330071997e-5 0.00028918165480718017 -0.0007476172759197652
-2.2624490156886168e-5 0.00045298604527488356 -0.0007263802108354867
-2.2004807760822587e-5 0.0005730177508667111 -0.0006892112432979047
-1.070886446541408e-5 0.00030979240546002984 -0.0003328658640384674

CELL_DATA 50

VECTORS liftinglineloading               float
-0.5948374271392822 0.632628321647644 -0.16951224207878113
-0.9109433889389038 1.2257198095321655 -0.3284306228160858
-1.2754751443862915 1.7875111103057864 -0.4789621829986572
-0.18216878175735474 0.6085637211799622 -0.1630641669034958
0.6584358811378479 0.23330895602703094 -0.06251494586467743
1.3802989721298218 0.34559425711631775 -0.0926017016172409
0.9006728529930115 0.2731548249721527 -0.07319162040948868
-0.3019586205482483 0.6739784479141235 -0.18059198558330536
-1.850186228752136 1.0006413459777832 -0.26812103390693665
-3.986239194869995 1.422332525253296 -0.38111287355422974
-6.417461395263672 1.9251475334167478 -0.5158417224884033
-7.6747331619262695 2.2562291622161865 -0.6045547723770142
-9.696063995361328 2.462775707244873 -0.6598987579345703
-12.225456237792969 2.361690044403076 -0.6328129172325134
-13.110204696655273 2.4665071964263916 -0.6608986258506775
-13.49243450164795 2.7262284755706787 -0.7304906845092773
-13.012560844421387 2.823453664779663 -0.7565420866012573
-12.247243881225586 2.761183023452759 -0.7398567795753479
-12.00083065032959 2.693939685821533 -0.7218389511108398
-11.633832931518555 2.5999183654785156 -0.696645975112915
-11.365163803100586 2.52838134765625 -0.6774777173995972
-11.134469032287598 2.4574549198150635 -0.6584730744361877
-11.067619323730469 2.4231386184692383 -0.6492779850959778
-10.30418872833252 2.227593183517456 -0.5968817472457886
-10.238430976867676 2.2675459384918213 -0.6075870990753174
-10.382877349853516 2.2474567890167236 -0.6022042632102966
-10.355509757995605 2.2137503623962402 -0.5931726098060608
-10.957730293273926 2.297194480895996 -0.6155313849449158
-12.092090606689453 2.408223867416382 -0.6452816128730774
-11.766551971435547 2.326847553253174 -0.6234769225120544
-12.859752655029297 2.365445375442505 -0.6338192224502563
-13.378758430480957 2.3096272945404053 -0.6188627481460571
-14.00405979156494 2.1774449348449707 -0.5834446549415588
-14.533276557922363 2.1403355598449707 -0.5735011696815491
-14.792591094970701 2.07597017288208 -0.556254506111145
-15.002035140991211 1.9806437492370605 -0.5307118892669678
-15.042274475097656 1.780026912689209 -0.4769567549228669
-15.089436531066895 1.6841400861740115 -0.451263964176178
-14.71200942993164 1.5974992513656616 -0.4280486404895782
-14.367642402648926 1.4930375814437866 -0.40005823969841003
-13.898916244506836 1.408189058303833 -0.37732312083244324
-12.66690444946289 1.3391731977462769 -0.35883036255836487
-10.65514850616455 1.3363072872161865 -0.3580624461174011
-9.070165634155273 1.2896976470947266 -0.34557342529296875
-7.452564716339112 1.39840567111969 -0.37470167875289917
-6.258128643035889 1.4395508766174316 -0.3857265114784241
-4.981345176696777 1.4117497205734253 -0.3782771825790405
-3.793001413345337 1.4072285890579224 -0.3770657479763031
-2.5665810108184814 1.3820151090621948 -0.37030982971191406
-1.3754541873931885 1.3402550220489502 -0.35912024974823