# vtk DataFile Version 4.0
 
ASCII
DATASET UNSTRUCTURED_GRID
POINTS 51 float
0.0034458015579730272 -0.0035050800070166588 0.00640902342274785
0.00369006278924644 -0.007639770396053791 0.007520984392613172
0.0038282745517790313 -0.011348182335495949 0.009219318628311157
0.0037079283501952887 -0.014811362139880657 0.011190447025001049
0.003376203589141369 -0.018075453117489815 0.013354447670280935
0.0030025020241737366 -0.021266784518957138 0.015492506325244902
0.002778564812615514 -0.024573175236582756 0.01727931760251522
0.0027836053632199764 -0.027893578633666035 0.0188898965716362
0.0029529223684221506 -0.031061677262187 0.020612314343452454
0.003183003049343825 -0.03421476110816002 0.022208774462342262
0.0033991164527833466 -0.03730601817369461 0.023760361596941948
0.0035584971774369474 -0.04027135297656059 0.025378091260790825
0.0036438601091504097 -0.043153099715709686 0.026988640427589417
0.003657505614683032 -0.04599597305059433 0.02851455844938755
0.003614672925323248 -0.04879658296704292 0.02996171452105045
0.0035364592913538218 -0.05152678489685059 0.031378861516714096
0.003444118425250053 -0.054160188883543015 0.03281170502305031
0.0033548057544976473 -0.05669030174612999 0.034271489828825
0.0032793087884783745 -0.05913408845663071 0.03572883829474449
0.0032226084731519227 -0.06151636689901351 0.03714076057076454
0.003185397945344448 -0.06385336071252823 0.03847915679216385
0.0031655679922550917 -0.06614506244659424 0.03974403813481331
0.0031594964675605297 -0.06838086247444153 0.04095378890633583
0.0031630429439246655 -0.0705484077334404 0.04212978854775429
0.003172241384163499 -0.07263831794261932 0.043288297951221466
0.0031837469432502985 -0.07464490830898285 0.0444391705095768
0.003195086726918816 -0.07656595855951309 0.045586228370666504
0.0032047536224126816 -0.07840236276388168 0.04672793671488762
0.0032121820840984583 -0.08015762269496918 0.047858238220214844
0.003217642894014716 -0.08183721452951431 0.0489676371216774
0.0032219537533819675 -0.08344731479883194 0.050045426934957504
0.0032260718289762735 -0.08499306440353394 0.05108272284269333
0.003230798291042447 -0.08647742867469788 0.052074380218982703
0.0032366192899644375 -0.0879008024930954 0.053019724786281586
0.0032436484470963474 -0.08926107734441757 0.05392238125205041
0.003251639194786548 -0.09055410325527191 0.05478955805301666
0.0032600469421595335 -0.09177429229021072 0.05563093721866608
0.003268117550760508 -0.09291577339172363 0.05645667761564254
0.0032749890815466647 -0.09397521615028381 0.05727255344390869
0.0032797926105558872 -0.09495411068201065 0.05807597562670707
0.003281744895502925 -0.09585901349782944 0.05885560438036919
0.0032802252098917965 -0.09670029580593109 0.05959345400333405
0.0032748340163379903 -0.0974905714392662 0.060267690569162376
0.0032654285896569495 -0.09824514389038086 0.060851804912090295
0.003252137918025255 -0.09898266196250916 0.06131350249052047
0.0032353585120290518 -0.09972210228443146 0.06161990389227867
0.0032157283276319504 -0.10047804564237595 0.06174577027559281
0.0031940888147801156 -0.10125626623630524 0.06168108433485031
0.003171431832015514 -0.1020509973168373 0.06143584102392197
0.003148839809000492 -0.10284427553415298 0.061041142791509635
0.00312742218375206 -0.10360748320817949 0.06054657697677613

CELLS 50 150
2 0 1
2 1 2
2 2 3
2 3 4
2 4 5
2 5 6
2 6 7
2 7 8
2 8 9
2 9 10
2 10 11
2 11 12
2 12 13
2 13 14
2 14 15
2 15 16
2 16 17
2 17 18
2 18 19
2 19 20
2 20 21
2 21 22
2 22 23
2 23 24
2 24 25
2 25 26
2 26 27
2 27 28
2 28 29
2 29 30
2 30 31
2 31 32
2 32 33
2 33 34
2 34 35
2 35 36
2 36 37
2 37 38
2 38 39
2 39 40
2 40 41
2 41 42
2 42 43
2 43 44
2 44 45
2 45 46
2 46 47
2 47 48
2 48 49
2 49 50

CELL_TYPES 50
4
4
4
4
4
4
4
4
4
4
4
4
4
4
4
4
4
4
4
4
4
4
4
4
4
4
4
4
4
4
4
4
4
4
4
4
4
4
4
4
4
4
4
4
4
4
4
4
4
4

POINT_DATA 51

SCALARS zone float
LOOKUP_TABLE default
1.0
1.0
1.0
1.0
1.0
1.0
1.0
1.0
1.0
1.0
1.0
1.0
1.0
1.0
1.0
1.0
1.0
1.0
1.0
1.0
1.0
1.0
1.0
1.0
1.0
1.0
1.0
1.0
1.0
1.0
1.0
1.0
1.0
1.0
1.0
1.0
1.0
1.0
1.0
1.0
1.0
1.0
1.0
1.0
1.0
1.0
1.0
1.0
1.0
1.0
1.0

VECTORS normals float
0.00012213067384436727 -0.002067345194518566 0.0005559804849326611
0.00019123655511066318 -0.003921551164239645 0.001405147835612297
8.932776836445555e-6 -0.0035857961047440763 0.0018347314326092599
-0.0002260355104226619 -0.0033636349253356457 0.0020675642881542444
-0.0003527131921146065 -0.0032277114223688845 0.0021510296501219273
-0.00029881938826292753 -0.003248861525207758 0.0019624351989477873
-0.0001094483450287953 -0.003313396824523807 0.0016986952396109698
8.717876335140318e-5 -0.0032442505471408367 0.0016664984868839383
0.00019969894492533058 -0.0031605917029082775 0.0016594387125223875
0.0002230970421805978 -0.003122171154245734 0.0015740235103294253
0.0001877470058389008 -0.0030282961670309305 0.0015846585156396031
0.00012237193004693836 -0.002923540538176894 0.001614138949662447
4.9504207709105685e-5 -0.0028623093385249376 0.0015682332450523973
-1.4593665582651738e-5 -0.0028217413928359747 0.0014865375123918056
-6.0523194406414405e-5 -0.0027654054574668407 0.0014321525814011693
-8.52772718644701e-5 -0.0026818029582500458 0.0014249950181692839
-9.082671022042632e-5 -0.0025817598216235638 0.0014463133411481977
-8.240483293775469e-5 -0.00248695001937449 0.0014585675671696663
-6.609866250073537e-5 -0.0024130321107804775 0.001434635603800416
-4.695540701504797e-5 -0.002359636127948761 0.0013751588994637132
-2.8520251362351697e-5 -0.002314348006621003 0.0013016385491937399
-1.2950749805895612e-5 -0.002263750648126006 0.001237314660102129
-1.2625629324247711e-6 -0.0022016726434230804 0.0011928754393011332
6.37255334368092e-6 -0.0021287291310727596 0.0011672559194266796
1.0352104254707228e-5 -0.0020482491236180067 0.0011546899331733584
1.1422682291595265e-5 -0.0019638200756162405 0.0011489640455693007
1.050324772222666e-5 -0.0018787296721711755 0.0011443833354860544
8.547682227799669e-6 -0.0017958314856514335 0.0011360058560967445
6.444628070312319e-6 -0.0017174234380945563 0.0011198511347174644
4.885740509052994e-6 -0.0016448477981612084 0.001093594473786652
4.214472937746905e-6 -0.0015779273817315698 0.0010575425112619996
4.422250640345737e-6 -0.0015150562394410372 0.0010144771076738834
5.273810074868379e-6 -0.0014538660179823637 0.0009685003897175193
6.425153969757957e-6 -0.0013918238691985607 0.0009239991195499897
7.509945589845301e-6 -0.0013266531750559807 0.0008849165169522166
8.1992238847306e-6 -0.0012566068908199668 0.0008542789728380739
8.239160706580151e-6 -0.0011808339040726423 0.000833560072351247
7.471068784070667e-6 -0.001100461115129292 0.0008208085782825947
5.837506250827573e-6 -0.001019168528728187 0.0008096499368548392
3.3778785564209097e-6 -0.0009418984409421682 0.0007915243040770292
2.163614567507466e-7 -0.0008730928529985249 0.0007587376749143004
-3.455363639659481e-6 -0.0008157805423252283 0.0007060441421344876
-7.398393336188747e-6 -0.0007724251481704414 0.0006291763857007027
-1.1348053703841288e-5 -0.000746046076528728 0.0005229049711488187
-1.5035005162644666e-5 -0.0007384791970252991 0.0003840496647171676
-1.8204780644737184e-5 -0.0007476900354959071 0.00021613467833958566
-2.06348231586162e-5 -0.000767079705838114 3.0589410016546026e-5
-2.214833330071997e-5 -0.0007864751387387514 -0.0001549659646116197
-2.2624490156886168e-5 -0.0007940050563775002 -0.00031996957841329277
-2.2004807760822587e-5 -0.0007782440516166389 -0.0004446320526767522
-1.070886446541408e-5 -0.0003816037788055837 -0.0002472844207659364

CELL_DATA 50

VECTORS liftinglineloading               float
-0.3329671621322632 -0.14791584014892578 -0.31720656156539917
-0.4169905185699463 -0.3689402937889099 -0.7911950349807739
-0.6334590911865234 -0.5463126301765442 -1.171571135520935
0.46939143538475037 -0.0312831774353981 -0.06708698719739914
1.4313827753067017 -0.06586705893278122 -0.14125235378742218
2.077571392059326 -0.06689460575580597 -0.14345595240592957
1.4962093830108643 -0.02168416790664196 -0.046501848846673965
0.5972034335136414 0.007777568884193897 0.016679050400853157
-0.5566555857658386 -0.12491732090711595 -0.26788607239723206
-1.6954709291458132 -0.22236980497837067 -0.4768735766410827
-2.161153554916382 -0.2683984339237213 -0.5755822658538818
-2.1345818042755127 -0.30405884981155396 -0.6520563364028931
-2.0625314712524414 -0.31303995847702026 -0.6713163256645203
-2.2375645637512207 -0.33899566531181335 -0.7269785404205322
-2.731757402420044 -0.3967092037200928 -0.8507456183433533
-3.498257637023926 -0.4796313941478729 -1.0285727977752686
-4.496446132659912 -0.5514721870422363 -1.1826359033584595
-5.656693935394287 -0.6498777866363525 -1.393667459487915
-7.335304737091064 -0.7584041357040405 -1.626402974128723
-8.851547241210938 -0.8263883590698242 -1.7721955776214597
-10.476990699768066 -0.8981812000274657 -1.9261558055877686
-12.139785766601562 -0.9538263082504271 -2.04548716545105
-13.972400665283203 -1.0102933645248413 -2.166581153869629
-14.953886985778809 -0.996231734752655 -2.1364259719848633
-16.49176788330078 -1.0442345142364502 -2.239368200302124
-17.748294830322266 -1.0483614206314087 -2.248218297958374
-19.073339462280273 -1.0624232292175293 -2.278373956680298
-20.760395050048828 -1.0778857469558716 -2.3115334510803223
-21.282320022583008 -1.0498313903808594 -2.251370668411255
-22.175630569458008 -1.0282464027404785 -2.2050814628601074
-22.324474334716797 -0.9741128087043762 -2.088991641998291
-22.63112449645996 -0.9721461534500122 -2.0847740173339844
-22.732030868530273 -0.9267197847366333 -1.987356901168823
-22.6993408203125 -0.8252844214439392 -1.769828200340271
-22.554859161376953 -0.7949640154838562 -1.7048058509826662
-22.22117805480957 -0.7504068613052368 -1.609252691268921
-21.75872230529785 -0.69019615650177 -1.4801304340362549
-21.068378448486328 -0.6486523151397705 -1.3910393714904785
-20.983243942260742 -0.6306633949279785 -1.3524619340896606
-20.01982307434082 -0.5971059799194336 -1.2804979085922241
-19.143518447875977 -0.552245557308197 -1.18429434299469
-17.327878952026367 -0.5423948168754578 -1.163169503211975
-14.715292930603027 -0.581152081489563 -1.2462846040725708
-12.527450561523438 -0.5736330151557922 -1.2301599979400635
-10.354948043823242 -0.6646940112113953 -1.4254409074783325
-9.113985061645508 -0.6873405575752258 -1.4740065336227417
-7.745150089263917 -0.6819502711296082 -1.4624470472335815
-6.025219440460205 -0.6772783398628235 -1.4524281024932861
-3.891207695007324 -0.6640056371688843 -1.4239647388458252
-1.8916505575180054 -0.6474340558052063 -1.3884267807006836