# vtk DataFile Version 4.0
 
ASCII
DATASET UNSTRUCTURED_GRID
POINTS 51 float
0.0034458015579730272 -0.004050325136631727 0.006079147104173899
0.00369006278924644 -0.00826619565486908 0.006826514843851328
0.0038282745517790313 -0.012108515948057175 0.008195177651941776
0.0037079283501952887 -0.01573031209409237 0.009856969118118286
0.003376203589141369 -0.01917058601975441 0.011728250421583652
0.0030025020241737366 -0.02253611944615841 0.013580030761659144
0.002778564812615514 -0.025985658168792725 0.015071871690452097
0.0027836053632199764 -0.029433798044919968 0.016386929899454117
0.0029529223684221506 -0.03273995965719223 0.01782667450606823
0.003183003049343825 -0.0360201857984066 0.01914224959909916
0.0033991164527833466 -0.039234910160303116 0.02041851356625557
0.0035584971774369474 -0.04232995584607124 0.021771639585494995
0.0036438601091504097 -0.04534110426902771 0.023124899715185165
0.003657505614683032 -0.04830615222454071 0.024397239089012146
0.003614672925323248 -0.051222231239080436 0.02559479884803295
0.0035364592913538218 -0.054065555334091187 0.02676860243082047
0.003444118425250053 -0.05681382119655609 0.027966475114226338
0.0033548057544976473 -0.05946153774857522 0.029200190678238872
0.0032793087884783745 -0.062023039907217026 0.03043900616466999
0.0032226084731519227 -0.06451930850744247 0.031637925654649734
0.003185397945344448 -0.0669640600681305 0.03276754543185234
0.0031655679922550917 -0.06935728341341019 0.033827878534793854
0.0031594964675605297 -0.07169000804424286 0.03483816236257553
0.0031630429439246655 -0.07395180314779282 0.03582077473402023
0.003172241384163499 -0.07613473385572433 0.03679272532463074
0.0031837469432502985 -0.0782339870929718 0.03776433318853378
0.003195086726918816 -0.08024770766496658 0.03873959556221962
0.0032047536224126816 -0.08217663317918777 0.03971690684556961
0.0032121820840984583 -0.08402372151613235 0.04068992659449577
0.003217642894014716 -0.08579360693693161 0.04164871945977211
0.0032219537533819675 -0.08749151974916458 0.04258207604289055
0.0032260718289762735 -0.08912179619073868 0.043480705469846725
0.003230798291042447 -0.09068693965673447 0.044339217245578766
0.0032366192899644375 -0.09218728542327881 0.04515690729022026
0.0032436484470963474 -0.09362106025218964 0.04593757167458534
0.003251639194786548 -0.0949847474694252 0.0466887541115284
0.0032600469421595335 -0.09627361595630646 0.04742058739066124
0.003268117550760508 -0.09748272597789764 0.04814369976520538
0.0032749890815466647 -0.09860923886299133 0.04886413738131523
0.0032797926105558872 -0.0996544361114502 0.049579184502363205
0.003281744895502925 -0.10062384605407715 0.0502769760787487
0.0032802252098917965 -0.10152623802423476 0.050938695669174194
0.0032748340163379903 -0.10237226635217667 0.05154149234294891
0.0032654285896569495 -0.10317488014698029 0.05205761641263962
0.003252137918025255 -0.10394982993602753 0.05245327949523926
0.0032353585120290518 -0.10471316426992415 0.05269406735897064
0.0032157283276319504 -0.1054771915078163 0.052753571420907974
0.0031940888147801156 -0.10624681413173674 0.05262130498886109
0.003171431832015514 -0.10701714456081392 0.05230772867798805
0.003148839809000492 -0.10777300596237181 0.05184539407491684
0.00312742218375206 -0.10849020630121231 0.05128619074821472

CELLS 50 150
2 0 1
2 1 2
2 2 3
2 3 4
2 4 5
2 5 6
2 6 7
2 7 8
2 8 9
2 9 10
2 10 11
2 11 12
2 12 13
2 13 14
2 14 15
2 15 16
2 16 17
2 17 18
2 18 19
2 19 20
2 20 21
2 21 22
2 22 23
2 23 24
2 24 25
2 25 26
2 26 27
2 27 28
2 28 29
2 29 30
2 30 31
2 31 32
2 32 33
2 33 34
2 34 35
2 35 36
2 36 37
2 37 38
2 38 39
2 39 40
2 40 41
2 41 42
2 42 43
2 43 44
2 44 45
2 45 46
2 46 47
2 47 48
2 48 49
2 49 50

CELL_TYPES 50
4
4
4
4
4
4
4
4
4
4
4
4
4
4
4
4
4
4
4
4
4
4
4
4
4
4
4
4
4
4
4
4
4
4
4
4
4
4
4
4
4
4
4
4
4
4
4
4
4
4

POINT_DATA 51

SCALARS zone float
LOOKUP_TABLE default
1.0
1.0
1.0
1.0
1.0
1.0
1.0
1.0
1.0
1.0
1.0
1.0
1.0
1.0
1.0
1.0
1.0
1.0
1.0
1.0
1.0
1.0
1.0
1.0
1.0
1.0
1.0
1.0
1.0
1.0
1.0
1.0
1.0
1.0
1.0
1.0
1.0
1.0
1.0
1.0
1.0
1.0
1.0
1.0
1.0
1.0
1.0
1.0
1.0
1.0
1.0

VECTORS normals float
0.00012213067384436727 -0.0021079350262880325 0.00037368384073488414
0.00019123655511066318 -0.00402909517288208 0.001058015157468617
8.932776836445555e-6 -0.0037320584524422884 0.0015152270207181573
-0.0002260355104226619 -0.0035310355015099053 0.00176653650123626
-0.0003527131921146065 -0.003402903443202377 0.0018615307053551076
-0.00029881938826292753 -0.0034075360745191574 0.0016718106344342232
-0.0001094483450287953 -0.003448839299380779 0.0014034496853128076
8.717876335140318e-5 -0.003377150278538466 0.0013774018734693527
0.00019969894492533058 -0.003293194342404604 0.0013776603154838085
0.0002230970421805978 -0.0032474754843860865 0.001295918715186417
0.0001877470058389008 -0.003154884558171034 0.001314694993197918
0.00012237193004693836 -0.003053097054362297 0.0013531933072954416
4.9504207709105685e-5 -0.00298809795640409 0.0013127989368513227
-1.4593665582651738e-5 -0.0029405641835182905 0.0012349497992545366
-6.0523194406414405e-5 -0.0028797027189284563 0.0011856819037348032
-8.52772718644701e-5 -0.002795794513076544 0.0011858379002660513
-9.082671022042632e-5 -0.0026979900430887938 0.0012157945893704891
-8.240483293775469e-5 -0.00260460888966918 0.001236265292391181
-6.609866250073537e-5 -0.00252888654358685 0.001218866789713502
-4.695540701504797e-5 -0.00247050984762609 0.0011642700992524624
-2.8520251362351697e-5 -0.0024189865216612816 0.0010949767893180251
-1.2950749805895612e-5 -0.002362975385040045 0.0010353074176236987
-1.2625629324247711e-6 -0.0022972605656832457 0.0009964477503672242
6.37255334368092e-6 -0.0022223617415875196 0.0009772832272574306
1.0352104254707228e-5 -0.0021410926710814238 0.0009717792854644358
1.1422682291595265e-5 -0.002056485740467906 0.0009734337218105793
1.050324772222666e-5 -0.001971320016309619 0.0009762865374796091
8.547682227799669e-6 -0.001888007274828851 0.0009751659235917032
6.444628070312319e-6 -0.0018084895564243197 0.0009659064235165715
4.885740509052994e-6 -0.0017339016776531935 0.0009460751316510141
4.214472937746905e-6 -0.0016640938119962811 0.000915992830414325
4.422250640345737e-6 -0.0015977085568010805 0.0008785708341747521
5.273810074868379e-6 -0.0015327439177781343 0.0008381021907553078
6.425153969757957e-6 -0.0014670593664050102 0.0007991775637492537
7.509945589845301e-6 -0.0013987304409965873 0.0007659237016923726
8.1992238847306e-6 -0.0013262804131954908 0.0007415076834149659
8.239160706580151e-6 -0.001248990069143474 0.0007274716626852751
7.471068784070667e-6 -0.0011678116861730814 0.0007217736565507948
5.837506250827573e-6 -0.0010858559980988503 0.0007177426014095545
3.3778785564209097e-6 -0.001007300103083253 0.0007064204546622932
2.163614567507466e-7 -0.0009358988027088344 0.000679755408782512
-3.455363639659481e-6 -0.0008742120116949081 0.0006322574918158352
-7.398393336188747e-6 -0.0008243221673183143 0.00055946089560166
-1.1348053703841288e-5 -0.0007887812680564821 0.00045589293586090207
-1.5035005162644666e-5 -0.0007691412465646863 0.00031822556047700346
-1.8204780644737184e-5 -0.0007636822410859168 0.00015014673408586532
-2.06348231586162e-5 -0.0007668267353437841 -3.63823892257642e-5
-2.214833330071997e-5 -0.00076997623546049 -0.00022292209905572238
-2.2624490156886168e-5 -0.0007630964391864836 -0.0003879540890920907
-2.2004807760822587e-5 -0.0007365303463302553 -0.000510768557433039
-1.070886446541408e-5 -0.00035859941272065043 -0.0002796023909468204

CELL_DATA 50

VECTORS liftinglineloading               float
-0.030927086248993874 -0.02952283062040806 -0.0811133086681366
-0.07654011994600296 -0.1041003316640854 -0.28601330518722534
-0.28564345836639404 -0.22072269022464752 -0.6064305901527405
1.0574862957000732 0.001338802743703127 0.003678330220282078
3.3420066833496094 0.06206037849187851 0.1705094873905182
4.812880516052246 0.15934689342975616 0.4378020167350769
2.4977986812591553 0.11810728162527084 0.3244970738887787
-0.8682559728622437 -0.2720150947570801 -0.7473552823066711
-5.196932792663574 -0.638856828212738 -1.755244731903076
-9.002462387084961 -0.8916765451431276 -2.4498612880706787
-11.29110050201416 -1.0479633808135986 -2.879255533218384
-11.84036636352539 -1.1222445964813232 -3.083341598510742
-12.007065773010254 -1.1916202306747437 -3.2739496231079097
-11.490184783935547 -1.1828094720840454 -3.2497425079345703
-10.404806137084961 -1.1009409427642822 -3.024810314178467
-9.532995223999023 -1.0224461555480957 -2.809147596359253
-8.880338668823242 -0.921053946018219 -2.5305747985839844
-8.539819717407227 -0.8861016631126404 -2.434544324874878
-9.170553207397461 -0.9285661578178405 -2.5512144565582275
-9.765087127685547 -0.9208555221557616 -2.530029773712158
-11.065189361572266 -0.9669751524925233 -2.6567423343658447
-12.992497444152832 -1.0259944200515747 -2.8188962936401367
-15.494703292846678 -1.0926871299743652 -3.0021331310272217
-17.211095809936523 -1.075255036354065 -2.9542388916015625
-20.15560531616211 -1.1459864377975464 -3.1485719680786133
-22.990781784057617 -1.1514133214950562 -3.163482189178467
-25.655288696289062 -1.14661705493927 -3.1503045558929443
-28.974634170532227 -1.1281315088272095 -3.099515914916992
-30.65221214294434 -1.033687710762024 -2.840033769607544
-32.77762222290039 -0.9652732610702515 -2.652066469192505
-33.073020935058594 -0.8669115900993347 -2.3818199634552
-33.76652908325195 -0.8450903296470641 -2.321866750717163
-34.028690338134766 -0.810815691947937 -2.2276978492736816
-34.114830017089844 -0.6735615134239197 -1.8505951166152954
-34.25320053100586 -0.6338938474655151 -1.7416090965270996
-34.35218811035156 -0.5868532061576843 -1.612365961074829
-35.08648681640625 -0.559712290763855 -1.537796974182129
-37.45991897583008 -0.5287953615188599 -1.4528534412384033
-31.005815505981445 -0.5072613954544067 -1.3936891555786133
-26.841617584228516 -0.4909746348857879 -1.348941683769226
-23.75282859802246 -0.4505268931388855 -1.2378125190734863
-19.9923152923584 -0.47774121165275574 -1.3125832080841064
-16.186416625976562 -0.556189239025116 -1.528117299079895
-12.966262817382812 -0.5725512504577637 -1.5730715990066528
-10.171552658081055 -0.6831240057945251 -1.8768677711486816
-8.138545036315918 -0.7088083028793335 -1.9474347829818726
-6.189942836761475 -0.7170762419700623 -1.9701508283615112
-4.553112983703613 -0.7146281003952026 -1.963424563407898
-3.0135459899902344 -0.7065191864967346 -1.941145420074463
-1.5709372758865356 -0.6960310339927673 -1.912329435348511