# vtk DataFile Version 4.0
 
ASCII
DATASET UNSTRUCTURED_GRID
POINTS 51 float
0.0034458015579730272 0.007260395679622888 -0.0008048712043091655
0.00369006278924644 0.010542822070419788 0.0019442740594968198
0.0038282745517790313 0.014061073772609234 0.004007902927696705
0.0037079283501952887 0.017662126570940018 0.005714180879294872
0.003376203589141369 0.021306976675987244 0.007146747317165137
0.0030025020241737366 0.024888845160603523 0.008534593507647514
0.002778564812615514 0.028248982504010204 0.010218157432973385
0.0027836053632199764 0.03147279843688011 0.012014281935989857
0.0029529223684221506 0.03470086678862572 0.0136214978992939
0.003183003049343825 0.03781714290380478 0.015288662165403366
0.0033991164527833466 0.04086120054125786 0.016930917277932167
0.0035584971774369474 0.043887216597795486 0.01843208633363247
0.0036438601091504097 0.04685940220952034 0.01986890286207199
0.003657505614683032 0.04973996430635452 0.02132241614162922
0.003614672925323248 0.05253177136182785 0.022786486893892288
0.0035364592913538218 0.055258609354496 0.024210093542933464
0.003444118425250053 0.05794278159737587 0.025545408949255943
0.0033548057544976473 0.06058978289365769 0.026780659332871437
0.0032793087884783745 0.06318527460098267 0.02794658951461315
0.0032226084731519227 0.06570827215909958 0.02908819355070591
0.003185397945344448 0.06814506649971008 0.030234873294830322
0.0031655679922550917 0.07049565762281418 0.03138662129640579
0.0031594964675605297 0.07276903092861176 0.032524194568395615
0.0031630429439246655 0.07497560977935791 0.03362521901726723
0.003172241384163499 0.07712332904338837 0.034672681242227554
0.0031837469432502985 0.07921699434518814 0.035656269639730453
0.003195086726918816 0.08125848323106766 0.03657197579741478
0.0032047536224126816 0.08324703574180603 0.037421416491270065
0.0032121820840984583 0.08517970144748688 0.0382109209895134
0.003217642894014716 0.08705183863639832 0.03895043581724167
0.0032219537533819675 0.0888582319021225 0.039651162922382355
0.0032260718289762735 0.09059453755617142 0.040322400629520416
0.003230798291042447 0.09225825220346451 0.040969524532556534
0.0032366192899644375 0.09384904056787491 0.04159325733780861
0.0032436484470963474 0.09536867588758469 0.042189788073301315
0.003251639194786548 0.09682068228721619 0.04275158420205116
0.0032600469421595335 0.09820976853370667 0.04326850548386574
0.003268117550760508 0.09954090416431427 0.04372992739081383
0.0032749890815466647 0.10081689804792404 0.04412980005145073
0.0032797926105558872 0.1020364984869957 0.04447084292769432
0.003281744895502925 0.10319415479898453 0.044764917343854904
0.0032802252098917965 0.10428111255168913 0.04503084719181061
0.0032748340163379903 0.10528669506311417 0.0452914722263813
0.0032654285896569495 0.1061979830265045 0.045574553310871124
0.003252137918025255 0.1069992035627365 0.04591387137770653
0.0032353585120290518 0.10767432302236556 0.0463438406586647
0.0032157283276319504 0.10821101069450377 0.046890877187252045
0.0031940888147801156 0.10860439389944077 0.047565460205078125
0.003171431832015514 0.1088593378663063 0.04835713282227516
0.003148839809000492 0.10899103432893753 0.0492333360016346
0.00312742218375206 0.10902366042137146 0.05014219135046005

CELLS 50 150
2 0 1
2 1 2
2 2 3
2 3 4
2 4 5
2 5 6
2 6 7
2 7 8
2 8 9
2 9 10
2 10 11
2 11 12
2 12 13
2 13 14
2 14 15
2 15 16
2 16 17
2 17 18
2 18 19
2 19 20
2 20 21
2 21 22
2 22 23
2 23 24
2 24 25
2 25 26
2 26 27
2 27 28
2 28 29
2 29 30
2 30 31
2 31 32
2 32 33
2 33 34
2 34 35
2 35 36
2 36 37
2 37 38
2 38 39
2 39 40
2 40 41
2 41 42
2 42 43
2 43 44
2 44 45
2 45 46
2 46 47
2 47 48
2 48 49
2 49 50

CELL_TYPES 50
4
4
4
4
4
4
4
4
4
4
4
4
4
4
4
4
4
4
4
4
4
4
4
4
4
4
4
4
4
4
4
4
4
4
4
4
4
4
4
4
4
4
4
4
4
4
4
4
4
4

POINT_DATA 51

SCALARS zone float
LOOKUP_TABLE default
1.0
1.0
1.0
1.0
1.0
1.0
1.0
1.0
1.0
1.0
1.0
1.0
1.0
1.0
1.0
1.0
1.0
1.0
1.0
1.0
1.0
1.0
1.0
1.0
1.0
1.0
1.0
1.0
1.0
1.0
1.0
1.0
1.0
1.0
1.0
1.0
1.0
1.0
1.0
1.0
1.0
1.0
1.0
1.0
1.0
1.0
1.0
1.0
1.0
1.0
1.0

VECTORS normals float
0.00012213067384436727 0.0016412129625678062 0.0013745726319029927
0.00019123655511066318 0.0034003390464931726 0.002406387124210596
8.932776836445555e-6 0.003559652250260115 0.001884953468106687
-0.0002260355104226619 0.0036229512188583612 0.0015694223111495376
-0.0003527131921146065 0.003613359527662396 0.0014102064305916429
-0.00029881938826292753 0.0034710031468421225 0.0015357049414888024
-0.0001094483450287953 0.0032919759396463633 0.0017398440977558494
8.717876335140318e-5 0.0032259414438158274 0.0017016702331602571
0.00019969894492533058 0.003172173397615552 0.0016371902311220765
0.0002230970421805978 0.0030801682732999325 0.0016547100385650992
0.0001877470058389008 0.0030350354500114918 0.0015717120841145515
0.00012237193004693836 0.0029990992043167353 0.001468992093577981
4.9504207709105685e-5 0.002926374552771449 0.0014451647875830531
-1.4593665582651738e-5 0.002836184576153755 0.001458792365156114
-6.0523194406414405e-5 0.002759322291240096 0.0014438385842368007
-8.52772718644701e-5 0.0027055065147578716 0.0013794609112665057
-9.082671022042632e-5 0.0026655872352421284 0.0012852826621383429
-8.240483293775469e-5 0.0026212444063276052 0.0012005901662632823
-6.609866250073537e-5 0.0025592430029064417 0.0011537669925019145
-4.695540701504797e-5 0.0024798959493637085 0.0011441420065239072
-2.8520251362351697e-5 0.0023936955258250237 0.0011492137564346194
-1.2950749805895612e-5 0.002311982912942767 0.0011446613352745771
-1.2625629324247711e-6 0.0022399737499654293 0.0011192994425073266
6.37255334368092e-6 0.002177148824557662 0.0010742422891780734
1.0352104254707228e-5 0.002120693912729621 0.0010155244963243604
1.1422682291595265e-5 0.0020675770938396454 0.0009496484417468308
1.050324772222666e-5 0.002015019068494439 0.0008825739496387541
8.547682227799669e-6 0.0019606081768870354 0.0008194728288799524
6.444628070312319e-6 0.0019024019129574299 0.0007645107107236981
4.885740509052994e-6 0.001839266042225063 0.0007201203843578696
4.214472937746905e-6 0.0017713501583784819 0.0006859809509478509
4.422250640345737e-6 0.0017000115476548672 0.0006591812707483768
5.273810074868379e-6 0.0016272523207589982 0.0006354282959364355
6.425153969757957e-6 0.0015552131226286292 0.0006101312465034425
7.509945589845301e-6 0.001485818182118237 0.0005791634321212769
8.1992238847306e-6 0.0014205444604158401 0.0005393577739596367
8.239160706580151e-6 0.0013601109385490417 0.0004891721182502806
7.471068784070667e-6 0.0013035655720159411 0.00043064847704954445
5.837506250827573e-6 0.001247797510586679 0.0003704578848555684
3.3778785564209097e-6 0.0011886295396834612 0.00031755835516378284
2.163614567507466e-7 0.0011223070323467255 0.0002800017537083477
-3.455363639659481e-6 0.0010462700156494975 0.00026327799423597753
-7.398393336188747e-6 0.0009584359941072763 0.00027185288490727544
-1.1348053703841288e-5 0.0008562530856579542 0.000311199197312817
-1.5035005162644666e-5 0.0007381693576462567 0.0003846449253614992
-1.8204780644737184e-5 0.000605904555413872 0.0004885020898655057
-2.06348231586162e-5 0.00046503619523718953 0.0006108095403760672
-2.214833330071997e-5 0.00032416294561699033 0.0007331275846809149
-2.2624490156886168e-5 0.00019331887597218156 0.0008339378982782364
-2.2004807760822587e-5 8.216118294512853e-5 0.0008925306610763072
-1.070886446541408e-5 1.6315403627231717e-5 0.0004544280236586929

CELL_DATA 50

VECTORS liftinglineloading               float
-0.2117743641138077 -0.4228537678718567 0.7324042320251465
-0.6222745180130005 -1.2682439088821411 2.1966629028320312
-2.212752103805542 -2.5135111808776855 4.35352897644043
3.9218168258666988 -0.18803741037845612 0.325690358877182
11.05614948272705 -0.43911799788475037 0.7605746984481812
16.94853973388672 -0.5586289763450623 0.9675737619400024
12.22486686706543 -0.31168103218078613 0.5398473739624023
4.079710483551025 -0.16591709852218628 0.28737685084342957
-3.459246158599853 -1.0089138746261597 1.747490167617798
-7.9848361015319815 -1.4804946184158325 2.5642919540405273
-9.195897102355957 -1.2865122556686401 2.228304624557495
-0.8437467813491821 -0.2677132785320282 0.46369299292564387
2.009350061416626 0.1672796756029129 -0.28973689675331116
2.6779708862304688 0.2023068368434906 -0.3504057228565216
2.8616011142730713 0.1881125569343567 -0.3258205056190491
2.827465772628784 0.16250716149806976 -0.2814706563949585
2.502863883972168 0.09939149022102356 -0.1721511036157608
1.540307879447937 -0.04620802029967308 0.08003463596105576
0.4283415377140045 -0.20581071078777316 0.3564746081829071
-1.6826425790786743 -0.46171319484710693 0.7997106909751892
-3.7064306735992427 -0.6584315896034241 1.1404368877410889
-5.602236747741699 -0.8139469623565675 1.4097975492477417
-7.242708206176757 -0.9284679293632506 1.6081535816192627
-7.9962029457092285 -0.9443445801734924 1.635652780532837
-9.148624420166016 -1.0352826118469238 1.7931619882583618
-10.10655403137207 -1.0741679668426514 1.8605135679244995
-10.730619430541992 -1.0938786268234253 1.8946534395217898
-11.861129760742188 -1.1615092754364014 2.0117931365966797
-13.107603073120117 -1.218118667602539 2.1098434925079346
-12.96762466430664 -1.1915183067321777 2.063770294189453
-13.4717378616333 -1.1911811828613281 2.0631864070892334
-13.760069847106934 -1.1652811765670776 2.0183262825012207
-14.077775001525879 -1.0963176488876343 1.8988778591156006
-14.275114059448242 -1.0744518041610718 1.8610050678253172
-14.197244644165039 -1.0441985130310059 1.8086049556732178
-14.074302673339844 -0.9993116855621338 1.730858564376831
-14.832189559936523 -0.9074139595031738 1.57168710231781
-14.49402904510498 -0.8603256940841675 1.4901278018951416
-13.80091381072998 -0.8175550103187562 1.4160468578338623
-13.212403297424316 -0.7654189467430115 1.3257445096969604
-12.5360689163208 -0.7263590097427368 1.2580907344818115
-11.169588088989258 -0.6901854276657104 1.1954362392425537
-9.244003295898438 -0.6795687675476074 1.177047610282898
-7.795400619506836 -0.6538413166999817 1.132486343383789
-6.428349018096924 -0.6846796870231628 1.1858999729156494
-5.260195732116699 -0.6967171430587769 1.2067495584487915
-4.129586696624756 -0.6742106676101685 1.1677671670913696
-3.0903162956237793 -0.6675320863723755 1.1561994552612305
-2.068457841873169 -0.6461175680160522 1.1191084384918213
-1.081139326095581 -0.6182433366775513 1.070828914642334