# vtk DataFile Version 4.0
 
ASCII
DATASET UNSTRUCTURED_GRID
POINTS 51 float
0.0034458015579730272 0.007260395679622888 -0.0008048712043091655
0.00369006278924644 0.010542822070419788 0.0019442740594968198
0.0038282745517790313 0.014061073772609234 0.004007902927696705
0.0037079283501952887 0.017662126570940018 0.005714180879294872
0.003376203589141369 0.021306976675987244 0.007146747317165137
0.0030025020241737366 0.024888845160603523 0.008534593507647514
0.002778564812615514 0.028248982504010204 0.010218157432973385
0.0027836053632199764 0.03147279843688011 0.012014281935989857
0.0029529223684221506 0.03470086678862572 0.0136214978992939
0.003183003049343825 0.03781714290380478 0.015288662165403366
0.0033991164527833466 0.04086120054125786 0.016930917277932167
0.0035584971774369474 0.043887216597795486 0.01843208633363247
0.0036438601091504097 0.04685940220952034 0.01986890286207199
0.003657505614683032 0.04973996430635452 0.02132241614162922
0.003614672925323248 0.05253177136182785 0.022786486893892288
0.0035364592913538218 0.055258609354496 0.024210093542933464
0.003444118425250053 0.05794278159737587 0.025545408949255943
0.0033548057544976473 0.06058978289365769 0.026780659332871437
0.0032793087884783745 0.06318527460098267 0.02794658951461315
0.0032226084731519227 0.06570827215909958 0.02908819355070591
0.003185397945344448 0.06814506649971008 0.030234873294830322
0.0031655679922550917 0.07049565762281418 0.03138662129640579
0.0031594964675605297 0.07276903092861176 0.032524194568395615
0.0031630429439246655 0.07497560977935791 0.03362521901726723
0.003172241384163499 0.07712332904338837 0.034672681242227554
0.0031837469432502985 0.07921699434518814 0.035656269639730453
0.003195086726918816 0.08125848323106766 0.03657197579741478
0.0032047536224126816 0.08324703574180603 0.037421416491270065
0.0032121820840984583 0.08517970144748688 0.0382109209895134
0.003217642894014716 0.08705183863639832 0.03895043581724167
0.0032219537533819675 0.0888582319021225 0.039651162922382355
0.0032260718289762735 0.09059453755617142 0.040322400629520416
0.003230798291042447 0.09225825220346451 0.040969524532556534
0.0032366192899644375 0.09384904056787491 0.04159325733780861
0.0032436484470963474 0.09536867588758469 0.042189788073301315
0.003251639194786548 0.09682068228721619 0.04275158420205116
0.0032600469421595335 0.09820976853370667 0.04326850548386574
0.003268117550760508 0.09954090416431427 0.04372992739081383
0.0032749890815466647 0.10081689804792404 0.04412980005145073
0.0032797926105558872 0.1020364984869957 0.04447084292769432
0.003281744895502925 0.10319415479898453 0.044764917343854904
0.0032802252098917965 0.10428111255168913 0.04503084719181061
0.0032748340163379903 0.10528669506311417 0.0452914722263813
0.0032654285896569495 0.1061979830265045 0.045574553310871124
0.003252137918025255 0.1069992035627365 0.04591387137770653
0.0032353585120290518 0.10767432302236556 0.0463438406586647
0.0032157283276319504 0.10821101069450377 0.046890877187252045
0.0031940888147801156 0.10860439389944077 0.047565460205078125
0.003171431832015514 0.1088593378663063 0.04835713282227516
0.003148839809000492 0.10899103432893753 0.0492333360016346
0.00312742218375206 0.10902366042137146 0.05014219135046005

CELLS 50 150
2 0 1
2 1 2
2 2 3
2 3 4
2 4 5
2 5 6
2 6 7
2 7 8
2 8 9
2 9 10
2 10 11
2 11 12
2 12 13
2 13 14
2 14 15
2 15 16
2 16 17
2 17 18
2 18 19
2 19 20
2 20 21
2 21 22
2 22 23
2 23 24
2 24 25
2 25 26
2 26 27
2 27 28
2 28 29
2 29 30
2 30 31
2 31 32
2 32 33
2 33 34
2 34 35
2 35 36
2 36 37
2 37 38
2 38 39
2 39 40
2 40 41
2 41 42
2 42 43
2 43 44
2 44 45
2 45 46
2 46 47
2 47 48
2 48 49
2 49 50

CELL_TYPES 50
4
4
4
4
4
4
4
4
4
4
4
4
4
4
4
4
4
4
4
4
4
4
4
4
4
4
4
4
4
4
4
4
4
4
4
4
4
4
4
4
4
4
4
4
4
4
4
4
4
4

POINT_DATA 51

SCALARS zone float
LOOKUP_TABLE default
1.0
1.0
1.0
1.0
1.0
1.0
1.0
1.0
1.0
1.0
1.0
1.0
1.0
1.0
1.0
1.0
1.0
1.0
1.0
1.0
1.0
1.0
1.0
1.0
1.0
1.0
1.0
1.0
1.0
1.0
1.0
1.0
1.0
1.0
1.0
1.0
1.0
1.0
1.0
1.0
1.0
1.0
1.0
1.0
1.0
1.0
1.0
1.0
1.0
1.0
1.0

VECTORS normals float
0.00012213067384436727 0.0016412129625678062 0.0013745726319029927
0.00019123655511066318 0.0034003390464931726 0.002406387124210596
8.932776836445555e-6 0.003559652250260115 0.001884953468106687
-0.0002260355104226619 0.0036229512188583612 0.0015694223111495376
-0.0003527131921146065 0.003613359527662396 0.0014102064305916429
-0.00029881938826292753 0.0034710031468421225 0.0015357049414888024
-0.0001094483450287953 0.0032919759396463633 0.0017398440977558494
8.717876335140318e-5 0.0032259414438158274 0.0017016702331602571
0.00019969894492533058 0.003172173397615552 0.0016371902311220765
0.0002230970421805978 0.0030801682732999325 0.0016547100385650992
0.0001877470058389008 0.0030350354500114918 0.0015717120841145515
0.00012237193004693836 0.0029990992043167353 0.001468992093577981
4.9504207709105685e-5 0.002926374552771449 0.0014451647875830531
-1.4593665582651738e-5 0.002836184576153755 0.001458792365156114
-6.0523194406414405e-5 0.002759322291240096 0.0014438385842368007
-8.52772718644701e-5 0.0027055065147578716 0.0013794609112665057
-9.082671022042632e-5 0.0026655872352421284 0.0012852826621383429
-8.240483293775469e-5 0.0026212444063276052 0.0012005901662632823
-6.609866250073537e-5 0.0025592430029064417 0.0011537669925019145
-4.695540701504797e-5 0.0024798959493637085 0.0011441420065239072
-2.8520251362351697e-5 0.0023936955258250237 0.0011492137564346194
-1.2950749805895612e-5 0.002311982912942767 0.0011446613352745771
-1.2625629324247711e-6 0.0022399737499654293 0.0011192994425073266
6.37255334368092e-6 0.002177148824557662 0.0010742422891780734
1.0352104254707228e-5 0.002120693912729621 0.0010155244963243604
1.1422682291595265e-5 0.0020675770938396454 0.0009496484417468308
1.050324772222666e-5 0.002015019068494439 0.0008825739496387541
8.547682227799669e-6 0.0019606081768870354 0.0008194728288799524
6.444628070312319e-6 0.0019024019129574299 0.0007645107107236981
4.885740509052994e-6 0.001839266042225063 0.0007201203843578696
4.214472937746905e-6 0.0017713501583784819 0.0006859809509478509
4.422250640345737e-6 0.0017000115476548672 0.0006591812707483768
5.273810074868379e-6 0.0016272523207589982 0.0006354282959364355
6.425153969757957e-6 0.0015552131226286292 0.0006101312465034425
7.509945589845301e-6 0.001485818182118237 0.0005791634321212769
8.1992238847306e-6 0.0014205444604158401 0.0005393577739596367
8.239160706580151e-6 0.0013601109385490417 0.0004891721182502806
7.471068784070667e-6 0.0013035655720159411 0.00043064847704954445
5.837506250827573e-6 0.001247797510586679 0.0003704578848555684
3.3778785564209097e-6 0.0011886295396834612 0.00031755835516378284
2.163614567507466e-7 0.0011223070323467255 0.0002800017537083477
-3.455363639659481e-6 0.0010462700156494975 0.00026327799423597753
-7.398393336188747e-6 0.0009584359941072763 0.00027185288490727544
-1.1348053703841288e-5 0.0008562530856579542 0.000311199197312817
-1.5035005162644666e-5 0.0007381693576462567 0.0003846449253614992
-1.8204780644737184e-5 0.000605904555413872 0.0004885020898655057
-2.06348231586162e-5 0.00046503619523718953 0.0006108095403760672
-2.214833330071997e-5 0.00032416294561699033 0.0007331275846809149
-2.2624490156886168e-5 0.00019331887597218156 0.0008339378982782364
-2.2004807760822587e-5 8.216118294512853e-5 0.0008925306610763072
-1.070886446541408e-5 1.6315403627231717e-5 0.0004544280236586929

CELL_DATA 50

VECTORS liftinglineloading               float
-0.03697812557220459 -0.153817281126976 0.26641935110092163
-0.24787519872188565 -0.5958064794540405 1.031967043876648
-1.172983169555664 -1.3320527076721191 2.307183027267456
2.73568058013916 -0.09067708998918533 0.15705733001232147
8.908378601074219 -0.22751012444496155 0.39405909180641174
15.890045166015623 -0.37123000621795654 0.6429892778396606
13.243495941162108 -0.3384856879711151 0.5862743854522705
3.364140033721924 -0.6279502511024475 1.087641716003418
-8.701537132263184 -2.5103657245635986 4.348080635070801
-21.99836540222168 -4.073551654815674 7.055598258972168
-32.90630340576172 -4.956846714019775 8.58551025390625
-38.29991149902344 -5.224280834197998 9.04871940612793
-41.92671203613281 -5.41859245300293 9.38527774810791
-43.311012268066406 -5.540858745574951 9.59704875946045
-42.183414459228516 -4.8844804763793945 8.46016788482666
-38.97381591796875 -3.6165001392364506 6.2639617919921875
-35.21769714355469 -2.5329184532165527 4.387143611907959
-31.34242057800293 -2.347733736038208 4.066393852233887
-26.287651062011722 -2.257690668106079 3.910435199737549
-21.03436279296875 -2.0970425605773926 3.6321845054626465
-14.016146659851074 -1.6650260686874392 2.8839099407196045
-7.560615539550781 -1.196685552597046 2.0727200508117676
-3.076378107070923 -0.8593420386314392 1.4884240627288818
-2.050738573074341 -0.8192656040191649 1.4190096855163574
-1.6629711389541626 -0.8093927502632141 1.401909351348877
-2.184474229812622 -0.854524314403534 1.4800795316696167
-2.558680772781372 -0.8824674487113954 1.5284783840179443
-3.063636064529419 -0.9267087578773497 1.6051067113876343
-4.75610876083374 -1.0519312620162964 1.8219984769821167
-5.601126194000244 -1.0906447172164917 1.8890520334243774
-7.755432605743408 -1.2096648216247559 2.095201015472412
-8.54898738861084 -1.1876083612442017 2.0569980144500732
-9.384478569030762 -1.147666573524475 1.9878169298171997
-9.976435661315918 -1.1770566701889038 2.038722038269043
-10.162192344665527 -1.1556624174118042 2.0016660690307617
-10.257966041564941 -1.112284541130066 1.9265333414077759
-10.142449378967285 -0.9968559741973877 1.7266052961349485
-10.580902099609375 -0.9643782973289491 1.6703522205352783
-10.196393013000488 -0.9137908220291137 1.582732081413269
-9.901724815368652 -0.8539541363716127 1.479092001914978
-9.389016151428223 -0.8178604245185852 1.4165757894515991
-8.223465919494629 -0.7747146487236023 1.341845154762268
-6.904646873474122 -0.7454929947853088 1.2912317514419556
-5.963385105133057 -0.7189741730690002 1.2452998161315918
-5.237390518188477 -0.7076297998428345 1.2256507873535156
-4.2031755447387695 -0.7093687057495117 1.2286626100540161
-3.3176879882812504 -0.6789272427558899 1.1759365797042847
-2.488341808319092 -0.6718899011611938 1.1637474298477173
-1.7196705341339114 -0.6482604146003723 1.1228199005126953
-0.8791935443878173 -0.6146422028541565 1.0645915269851685