# vtk DataFile Version 4.0
 
ASCII
DATASET UNSTRUCTURED_GRID
POINTS 51 float
0.0034458015579730272 0.0032395331654697652 0.006547258235514165
0.00369006278924644 0.001778837409801781 0.010571992956101894
0.0038282745517790313 0.0010429738322272897 0.014583870768547058
0.0037079283501952887 0.0006712292088195682 0.018551334738731384
0.003376203589141369 0.0005716693704016507 0.02246634103357792
0.0030025020241737366 0.0004925915272906423 0.026306867599487308
0.002778564812615514 5.9794230764964595e-5 0.030040176585316658
0.0027836053632199764 -0.0005254016141407192 0.03368388116359711
0.0029529223684221506 -0.0009316258947364986 0.03726697340607643
0.003183003049343825 -0.0014324182411655784 0.04076552018523216
0.0033991164527833466 -0.00193450425285846 0.04418768361210823
0.0035584971774369474 -0.002310184296220541 0.04754463583230972
0.0036438601091504097 -0.002643801737576723 0.05082899704575539
0.003657505614683032 -0.003024447476491332 0.05403297394514083
0.003614672925323248 -0.003445370122790336 0.05715715512633324
0.0035364592913538218 -0.0038504889234900475 0.060206446796655655
0.003444118425250053 -0.004187232814729214 0.06318545341491699
0.0033548057544976473 -0.004442661069333553 0.06609530001878738
0.0032793087884783745 -0.0046505676582455635 0.06893303245306015
0.0032226084731519227 -0.004860408138483763 0.07169432193040848
0.003185397945344448 -0.005104502663016319 0.07437635213136673
0.0031655679922550917 -0.00538283959031105 0.07697910815477371
0.0031594964675605297 -0.005674272775650024 0.07950445264577866
0.0031630429439246655 -0.005954201798886061 0.08195453137159348
0.003172241384163499 -0.006203930359333754 0.0843309760093689
0.0031837469432502985 -0.006412123795598745 0.08663478493690491
0.003195086726918816 -0.006574379280209541 0.08886634558439255
0.0032047536224126816 -0.006692465860396624 0.09102550148963928
0.0032121820840984583 -0.006773349829018116 0.09311164170503616
0.003217642894014716 -0.0068279565311968335 0.09512380510568619
0.0032219537533819675 -0.006868601310998201 0.0970609188079834
0.0032260718289762735 -0.006905504036694765 0.09892208874225616
0.003230798291042447 -0.006944580469280481 0.1007068008184433
0.0032366192899644375 -0.006986612454056739 0.10241498798131944
0.0032436484470963474 -0.0070274234749376765 0.10404700040817261
0.003251639194786548 -0.007058724295347929 0.10560358315706253
0.0032600469421595335 -0.007069374900311232 0.1070856973528862
0.003268117550760508 -0.007047696504741907 0.1084943637251854
0.0032749890815466647 -0.006987038068473339 0.10983017832040787
0.0032797926105558872 -0.006890385411679745 0.11109286546707153
0.003281744895502925 -0.006770782172679901 0.11228129267692566
0.0032802252098917965 -0.006648913491517305 0.11339364945888519
0.0032748340163379903 -0.006549892015755177 0.11442773044109344
0.0032654285896569495 -0.006504220888018608 0.11538087576627731
0.003252137918025255 -0.006549043580889702 0.11624982953071594
0.0032353585120290518 -0.006722179241478442 0.1170312911272049
0.0032157283276319504 -0.007052663713693619 0.11772271245718002
0.0031940888147801156 -0.007552022114396095 0.11832309514284133
0.003171431832015514 -0.008208752609789371 0.11883343011140822
0.003148839809000492 -0.008987074717879295 0.11925686150789261
0.00312742218375206 -0.009829959832131863 0.1195983737707138

CELLS 50 150
2 0 1
2 1 2
2 2 3
2 3 4
2 4 5
2 5 6
2 6 7
2 7 8
2 8 9
2 9 10
2 10 11
2 11 12
2 12 13
2 13 14
2 14 15
2 15 16
2 16 17
2 17 18
2 18 19
2 19 20
2 20 21
2 21 22
2 22 23
2 23 24
2 24 25
2 25 26
2 26 27
2 27 28
2 28 29
2 29 30
2 30 31
2 31 32
2 32 33
2 33 34
2 34 35
2 35 36
2 36 37
2 37 38
2 38 39
2 39 40
2 40 41
2 41 42
2 42 43
2 43 44
2 44 45
2 45 46
2 46 47
2 47 48
2 48 49
2 49 50

CELL_TYPES 50
4
4
4
4
4
4
4
4
4
4
4
4
4
4
4
4
4
4
4
4
4
4
4
4
4
4
4
4
4
4
4
4
4
4
4
4
4
4
4
4
4
4
4
4
4
4
4
4
4
4

POINT_DATA 51

SCALARS zone float
LOOKUP_TABLE default
1.0
1.0
1.0
1.0
1.0
1.0
1.0
1.0
1.0
1.0
1.0
1.0
1.0
1.0
1.0
1.0
1.0
1.0
1.0
1.0
1.0
1.0
1.0
1.0
1.0
1.0
1.0
1.0
1.0
1.0
1.0
1.0
1.0
1.0
1.0
1.0
1.0
1.0
1.0
1.0
1.0
1.0
1.0
1.0
1.0
1.0
1.0
1.0
1.0
1.0
1.0

VECTORS normals float
0.00012213067384436727 -0.0007303478778339922 0.002012367360293865
0.00019123655511066318 -0.001098279608413577 0.004018306266516447
8.932776836445555e-6 -0.0005538041004911065 0.003989670891314745
-0.0002260355104226619 -0.00023565226001664996 0.003941234666854143
-0.0003527131921146065 -8.931882621254772e-5 0.0038777661975473166
-0.00029881938826292753 -0.00025593757163733244 0.003786918008700013
-0.0001094483450287953 -0.0005089965998195112 0.003688507247716188
8.717876335140318e-5 -0.0004957100609317422 0.003613398876041174
0.00019969894492533058 -0.0004535083135124296 0.003540819976478815
0.0002230970421805978 -0.0005014392081648111 0.0034603555686771874
0.0001877470058389008 -0.00043888299842365086 0.0033895575907081366
0.00012237193004693836 -0.0003546487423591316 0.0033206562511622906
4.9504207709105685e-5 -0.00035713164834305644 0.0032441681250929832
-1.4593665582651738e-5 -0.0004007841343991458 0.0031640781089663506
-6.0523194406414405e-5 -0.0004130206943955273 0.003086736658588052
-8.52772718644701e-5 -0.0003709314332809299 0.0030141479801386595
-9.082671022042632e-5 -0.00029608607292175293 0.0029444252140820026
-8.240483293775469e-5 -0.00023166733444668353 0.00287379021756351
-6.609866250073537e-5 -0.0002088736509904265 0.0027995132841169834
-4.695540701504797e-5 -0.00022696744417771697 0.0027216593734920025
-2.8520251362351697e-5 -0.000261215609498322 0.0026423921808600426
-1.2950749805895612e-5 -0.0002848851145245135 0.002564050490036607
-1.2625629324247711e-6 -0.000285681220702827 0.0024877097457647324
6.37255334368092e-6 -0.00026482873363420367 0.002413263311609626
1.0352104254707228e-5 -0.00022896080918144437 0.0023401302751153708
1.1422682291595265e-5 -0.00018522460595704615 0.002267685951665044
1.050324772222666e-5 -0.00014017114881426096 0.002195356646552682
8.547682227799669e-6 -9.948512888513505e-5 0.002122645266354084
6.444628070312319e-6 -6.774527719244361e-5 0.002049151109531522
4.885740509052994e-6 -4.7625740990042686e-5 0.001974640414118767
4.214472937746905e-6 -3.877382550854236e-5 0.0018991439137607815
4.422250640345737e-6 -3.798960096901283e-5 0.0018229415873065589
5.273810074868379e-6 -4.055420504300855e-5 0.0017464462434872985
6.425153969757957e-6 -4.1421611967962235e-5 0.001670099445618689
7.509945589845301e-6 -3.605582605814561e-5 0.001594297937117517
8.1992238847306e-6 -2.0975701772840694e-5 0.0015193463768810034
8.239160706580151e-6 5.513920314115239e-6 0.001445392961613834
7.471068784070667e-6 4.11684850405436e-5 0.0013722414150834084
5.837506250827573e-6 7.8655342804268e-5 0.0012992501724511385
3.3778785564209097e-6 0.00010812800610437989 0.001225557760335505
2.163614567507466e-7 0.00012073601828888059 0.001150389900431037
-3.455363639659481e-6 0.00011044502025470139 0.0010732185328379273
-7.398393336188747e-6 7.234626536956057e-5 0.0009936144342646003
-1.1348053703841288e-5 4.242302225065942e-7 0.0009110511164180933
-1.5035005162644666e-5 -0.00010897920583374797 0.0008252086117863655
-1.8204780644737184e-5 -0.00025181021192111075 0.0007364415796473622
-2.06348231586162e-5 -0.00041492143645882607 0.0006459002615883946
-2.214833330071997e-5 -0.0005780442734248936 0.0005553578957915306
-2.2624490156886168e-5 -0.0007175263017416 0.0004668838810175657
-2.2004807760822587e-5 -0.0008106037275865674 0.00038246973417699337
-1.070886446541408e-5 -0.0004214424698147922 0.00017075501091312617

CELL_DATA 50

VECTORS liftinglineloading               float
-0.3047495484352112 0.24029113352298737 0.04236980900168419
-0.39201414585113525 0.33569300174713135 0.0591917335987091
-0.43788161873817444 0.31360605359077454 0.05529720708727837
0.16391201317310333 0.11003948748111725 0.01940293051302433
0.129489466547966 0.08066514134407043 0.014223441481590271
0.029784180223941803 0.02116023376584053 0.0037311201449483637
0.018071874976158142 0.0004555272171273828 8.032173354877159e-5
-0.21239747107028964 -0.07526845484972 -0.013271858915686609
-0.46335169672966 -0.1835545003414154 -0.03236560896039009
-0.7757007479667664 -0.3147868812084198 -0.05550542101264
-1.252280831336975 -0.5083989500999451 -0.08964445441961288
-1.8755233287811282 -0.742573082447052 -0.1309356689453125
-2.5983188152313232 -0.9836450219154358 -0.17344315350055695
-3.1417925357818604 -1.145207166671753 -0.2019309252500534
-3.5066661834716797 -1.249636173248291 -0.22034457325935364
-3.8525202274322505 -1.3624845743179321 -0.24024279415607452
-4.039851665496826 -1.3752517700195312 -0.24249400198459628
-4.123082160949707 -1.4008041620254517 -0.2469995617866516
-4.116493225097656 -1.4705253839492798 -0.2592932879924774
-4.479527473449707 -1.5320078134536743 -0.270134299993515
-4.818809509277344 -1.605890154838562 -0.2831617593765259
-5.270055770874023 -1.692391276359558 -0.2984142303466797
-6.190163612365723 -1.8225431442260742 -0.32136353850364685
-7.339848041534425 -1.9092174768447876 -0.33664655685424805
-8.868435859680176 -2.117443323135376 -0.37336239218711853
-10.54576587677002 -2.2457480430603027 -0.3959859609603882
-12.187122344970703 -2.34334397315979 -0.4131947755813598
-14.68974494934082 -2.5403409004211426 -0.4479306638240814
-16.963703155517578 -2.6353347301483154 -0.46468064188957214
-18.40294075012207 -2.6008493900299072 -0.4585999250411987
-19.99184226989746 -2.513551950454712 -0.4432070553302765
-21.300487518310547 -2.4667649269104004 -0.434957206249237
-22.26146697998047 -2.3314032554626465 -0.41108930110931396
-22.918365478515625 -2.0859570503234863 -0.36781051754951477
-23.302148818969727 -1.9799696207046509 -0.3491220474243164
-23.385345458984375 -1.844002604484558 -0.3251473903656006
-23.23490333557129 -1.6791995763778684 -0.29608818888664246
-22.494993209838867 -1.5722821950912476 -0.2772357761859894
-21.851280212402344 -1.5012388229370117 -0.26470890641212463
-21.1461181640625 -1.4160693883895874 -0.2496912479400635
-20.539976119995117 -1.3012760877609253 -0.22945009171962738
-18.977733612060547 -1.2830644845962524 -0.22623887658119202
-16.787179946899414 -1.3914134502410889 -0.24534372985363007
-15.92819595336914 -1.3808294534683228 -0.24347749352455142
-12.36022663116455 -1.6152212619781494 -0.28480708599090576
-9.22758960723877 -1.6773754358291626 -0.29576653242111206
-6.804617881774902 -1.6803375482559204 -0.2962888479232788
-4.902080535888672 -1.6799546480178833 -0.2962213158607483
-3.1349542140960693 -1.6610275506973267 -0.292883962392807
-1.6177741289138794 -1.633655309677124 -0.28805750608444214