# vtk DataFile Version 4.0
 
ASCII
DATASET UNSTRUCTURED_GRID
POINTS 51 float
0.0034458015579730272 0.006804687902331353 -0.0026565745938569307
0.00369006278924644 0.010686798952519894 -0.0008506585145369172
0.0038282745517790313 0.014619275927543638 0.00023206305922940376
0.0037079283501952887 0.018539242446422577 0.0009481803863309323
0.003376203589141369 0.022430673241615295 0.0013885765802115202
0.0030025020241737366 0.026249693706631657 0.0018020774004980922
0.002778564812615514 0.029931075870990757 0.002558607142418623
0.0027836053632199764 0.033509913831949234 0.0034591460134834047
0.0029529223684221506 0.037043966352939606 0.004176111426204443
0.003183003049343825 0.040485553443431854 0.004979916848242283
0.0033991164527833466 0.043850935995578766 0.005778353661298752
0.0035584971774369474 0.04716236889362335 0.006445181556046009
0.0036438601091504097 0.05040515586733818 0.007063780445605516
0.003657505614683032 0.053563762456178665 0.007722222711890936
0.003614672925323248 0.05663936957716942 0.008413833566009998
0.0035364592913538218 0.05964175239205361 0.009083174169063568
0.003444118425250053 0.06258007138967514 0.009678274393081665
0.0033548057544976473 0.0654565840959549 0.010186339728534222
0.0032793087884783745 0.0682653933763504 0.010640780441462994
0.0032226084731519227 0.07099789381027222 0.011090485379099846
0.003185397945344448 0.07364843785762787 0.011567404493689537
0.0031655679922550917 0.07621703296899796 0.012071527540683746
0.0031594964675605297 0.07870736718177795 0.012581950053572655
0.0031630429439246655 0.0811237245798111 0.013074352405965326
0.003172241384163499 0.08346936106681824 0.01353025157004595
0.0031837469432502985 0.08574626594781876 0.013938442803919315
0.003195086726918816 0.08795519173145294 0.014294574037194252
0.0032047536224126816 0.09009583294391632 0.014600394293665884
0.0032121820840984583 0.09216698259115219 0.014862788841128348
0.003217642894014716 0.09416673332452774 0.015092560090124609
0.0032219537533819675 0.09609293192625046 0.015301880426704884
0.0032260718289762735 0.09794381260871887 0.015500854700803758
0.003230798291042447 0.09971832484006882 0.015695329755544662
0.0032366192899644375 0.10141634196043016 0.015886079519987106
0.0032436484470963474 0.10303859412670135 0.016068976372480392
0.003251639194786548 0.10458651930093765 0.016235822811722755
0.0032600469421595335 0.10606206208467485 0.016375606879591942
0.003268117550760508 0.10746726393699646 0.016476783901453018
0.0032749890815466647 0.10880327969789504 0.01653278060257435
0.0032797926105558872 0.11006958782672883 0.016546547412872314
0.003281744895502925 0.11126391589641572 0.016530975699424744
0.0032802252098917965 0.11238265782594682 0.01650651916861534
0.0032748340163379903 0.11342144012451172 0.016498001292347908
0.0032654285896569495 0.11437493562698363 0.016535576432943344
0.003252137918025255 0.11523667722940445 0.01665596291422844
0.0032353585120290518 0.11600007861852646 0.016896549612283707
0.0032157283276319504 0.11666006594896317 0.017286036163568497
0.0031940888147801156 0.117214635014534 0.017835821956396103
0.003171431832015514 0.11766579747200012 0.018534531816840172
0.003148839809000492 0.11801977455615997 0.019346795976161957
0.00312742218375206 0.11828652769327162 0.020216239616274834

CELLS 50 150
2 0 1
2 1 2
2 2 3
2 3 4
2 4 5
2 5 6
2 6 7
2 7 8
2 8 9
2 9 10
2 10 11
2 11 12
2 12 13
2 13 14
2 14 15
2 15 16
2 16 17
2 17 18
2 18 19
2 19 20
2 20 21
2 21 22
2 22 23
2 23 24
2 24 25
2 25 26
2 26 27
2 27 28
2 28 29
2 29 30
2 30 31
2 31 32
2 32 33
2 33 34
2 34 35
2 35 36
2 36 37
2 37 38
2 38 39
2 39 40
2 40 41
2 41 42
2 42 43
2 43 44
2 44 45
2 45 46
2 46 47
2 47 48
2 48 49
2 49 50

CELL_TYPES 50
4
4
4
4
4
4
4
4
4
4
4
4
4
4
4
4
4
4
4
4
4
4
4
4
4
4
4
4
4
4
4
4
4
4
4
4
4
4
4
4
4
4
4
4
4
4
4
4
4
4

POINT_DATA 51

SCALARS zone float
LOOKUP_TABLE default
1.0
1.0
1.0
1.0
1.0
1.0
1.0
1.0
1.0
1.0
1.0
1.0
1.0
1.0
1.0
1.0
1.0
1.0
1.0
1.0
1.0
1.0
1.0
1.0
1.0
1.0
1.0
1.0
1.0
1.0
1.0
1.0
1.0
1.0
1.0
1.0
1.0
1.0
1.0
1.0
1.0
1.0
1.0
1.0
1.0
1.0
1.0
1.0
1.0
1.0
1.0

VECTORS normals float
0.00012213067384436727 0.0019410556415095925 0.0009029580396600068
0.00019123655511066318 0.003907294012606144 0.0014443187974393368
8.932776836445555e-6 0.003926221746951342 0.0008994194213300943
-0.0002260355104226619 0.0039056986570358276 0.0005782567895948887
-0.0003527131921146065 0.0038552253972738986 0.00042694853618741035
-0.00029881938826292753 0.003750201314687729 0.0005850152811035514
-0.0001094483450287953 0.0036301093641668554 0.0008285343064926565
8.717876335140318e-5 0.0035564447753131385 0.0008087522001005709
0.00019969894492533058 0.003487820271402598 0.000760385359171778
0.0002230970421805978 0.003403484588488937 0.0008011209429241716
0.0001877470058389008 0.003338408190757036 0.0007326323539018631
0.00012237193004693836 0.0032771106343716383 0.0006427134503610432
4.9504207709105685e-5 0.0032006970141082998 0.0006385205197148025
-1.4593665582651738e-5 0.0031171070877462626 0.0006750266184099019
-6.0523194406414405e-5 0.0030389935709536076 0.0006804758450016379
-8.52772718644701e-5 0.002970349509268999 0.0006322202389128506
-9.082671022042632e-5 0.0029074151534587145 0.0005515829543583095
-8.240483293775469e-5 0.0028426633216440678 0.0004812530823983252
-6.609866250073537e-5 0.0027706557884812355 0.00045207247603684664
-4.695540701504797e-5 0.0026915213093161583 0.00046331199700944126
-2.8520251362351697e-5 0.0026095707435160875 0.000490521255414933
-1.2950749805895612e-5 0.0025294639635831118 0.0005072727799415588
-1.2625629324247711e-6 0.002453344641253352 0.0005014123162254691
6.37255334368092e-6 0.002380998805165291 0.00047415072913281625
1.0352104254707228e-5 0.0023112702183425426 0.00043204534449614584
1.1422682291595265e-5 0.0022429132368415594 0.00038216161192394793
1.050324772222666e-5 0.002174785826355219 0.0003309756866656244
8.547682227799669e-6 0.002105897292494774 0.0002841072855517268
6.444628070312319e-6 0.0020354490261524916 0.00024608278181403875
4.885740509052994e-6 0.0019629753660410643 0.00021954576368443668
4.214472937746905e-6 0.0018885377794504166 0.00020414758182596418
4.422250640345737e-6 0.0018126937793567777 0.00019672486814670265
5.273810074868379e-6 0.0017362659564241767 0.00019261270062997937
6.425153969757957e-6 0.00166013406123966 0.0001868227554950863
7.509945589845301e-6 0.0015850886702537537 0.000174870845512487
8.1992238847306e-6 0.0015117366565391421 0.00015331564645748585
8.239160706580151e-6 0.0014403733657673001 0.00012048135977238417
7.471068784070667e-6 0.0013706076424568892 7.858689059503376e-5
5.837506250827573e-6 0.0013011613627895713 3.48810717696324e-5
3.3778785564209097e-6 0.0012303180992603302 -9.021504183692741e-7
2.163614567507466e-7 0.0011565351160243154 -2.0013503672089428e-5
-3.455363639659481e-6 0.0010787606006488204 -1.648758552619256e-5
-7.398393336188747e-6 0.0009961387841030955 1.4528238352795597e-5
-1.1348053703841288e-5 0.0009076212299987675 7.898072362877429e-5
-1.5035005162644666e-5 0.000812570273410529 0.00018048616766463965
-1.8204780644737184e-5 0.0007116924971342087 0.00031503711943514645
-2.06348231586162e-5 0.0006072795949876308 0.00046963646309450274
-2.214833330071997e-5 0.000502864713780582 0.0006242473027668893
-2.2624490156886168e-5 0.00040257070213556295 0.0007554875337518752
-2.2004807760822587e-5 0.0003103655471932143 0.0008408535504713655
-1.070886446541408e-5 0.0001333740947302431 0.0004347210342530161

CELL_DATA 50

VECTORS liftinglineloading               float
-0.1913156658411026 -0.2194223701953888 0.81889545917511
-0.6777491569519043 -0.7292189002037048 2.721482038497925
-2.4209024906158447 -1.4221627712249756 5.307583808898926
3.9582583904266353 -0.10553386807441711 0.3938577473163605
11.239371299743652 -0.2305787056684494 0.8605314493179321
16.54228973388672 -0.30326738953590393 1.1318092346191406
11.864603042602539 -0.16524387896060944 0.6166985034942627
4.226749897003174 -0.04751545190811157 0.17733009159564972
-3.1637303829193115 -0.45129632949829096 1.6842608451843262
-8.179340362548828 -0.6101162433624268 2.276984691619873
-1.4390143156051636 -0.1932799369096756 0.7213305830955505
1.7777621746063232 0.07684697955846786 -0.28679680824279785
2.4928371906280518 0.10513274371623993 -0.39236074686050415
3.0227231979370117 0.12539930641651154 -0.467996597290039
3.1990230083465576 0.11656963080167772 -0.4350437819957733
3.0168256759643555 0.08148713409900665 -0.30411410331726074
2.791855573654175 0.07005629688501358 -0.26145365834236145
1.8266510963439941 -0.003843349171802402 0.01434357464313507
0.4618005454540252 -0.10043640434741974 0.37483376264572144
-1.9987770318984983 -0.2501372992992401 0.9335250854492188
-3.8397645950317387 -0.34583401679992676 1.2906701564788818
-6.086147308349609 -0.4370664060115815 1.6311540603637698
-8.076614379882812 -0.5039390921592712 1.880726337432861
-9.262123107910156 -0.5174192786216736 1.931035041809082
-10.703746795654297 -0.5674626231193542 2.1177992820739746
-11.933588981628418 -0.587476372718811 2.1924915313720703
-12.767281532287598 -0.5977845788002014 2.2309622764587402
-14.128727912902832 -0.6309734582901001 2.354825019836426
-15.149417877197266 -0.6468945741653442 2.414243459701538
-15.143133163452148 -0.6338666677474976 2.3656225204467773
-15.661402702331543 -0.6255124807357788 2.334444284439087
-16.55950164794922 -0.6213951706886292 2.3190784454345703
-16.7568302154541 -0.5822797417640686 2.1730973720550537
-16.81793785095215 -0.5555697679519653 2.0734145641326904
-16.63425636291504 -0.537530779838562 2.0060923099517822
-16.364173889160156 -0.5119319558143616 1.9105560779571533
-15.953901290893555 -0.46180790662765503 1.723490595817566
-15.514308929443361 -0.436672180891037 1.6296827793121338
-14.830437660217285 -0.4153139293193817 1.549972653388977
-14.219396591186523 -0.3891533613204956 1.4523401260375977
-13.544651031494142 -0.36789795756340027 1.3730138540267944
-12.1619291305542 -0.35066303610801697 1.3086923360824585
-10.096809387207031 -0.3492897152900696 1.3035669326782227
-8.500714302062988 -0.3367360234260559 1.2567158937454224
-6.938420295715332 -0.3603716492652893 1.3449252843856812
-5.727894306182861 -0.36850953102111816 1.3752963542938232
-4.49796199798584 -0.3582322597503662 1.3369410037994385
-3.368488311767578 -0.3547670245170593 1.3240084648132324
-2.2378077507019043 -0.3438580632209778 1.283295750617981
-1.1751441955566406 -0.3299294114112854 1.2313133478164673