# vtk DataFile Version 4.0
 
ASCII
DATASET UNSTRUCTURED_GRID
POINTS 51 float
0.0034458015579730272 0.006079147104173899 0.004050325136631727
0.00369006278924644 0.006826514843851328 0.00826619565486908
0.0038282745517790313 0.008195177651941776 0.012108515948057175
0.0037079283501952887 0.009856969118118286 0.01573031209409237
0.003376203589141369 0.011728250421583652 0.01917058601975441
0.0030025020241737366 0.013580030761659144 0.02253611944615841
0.002778564812615514 0.015071871690452097 0.025985658168792725
0.0027836053632199764 0.016386929899454117 0.029433798044919968
0.0029529223684221506 0.01782667450606823 0.03273995965719223
0.003183003049343825 0.01914224959909916 0.0360201857984066
0.0033991164527833466 0.02041851356625557 0.039234910160303116
0.0035584971774369474 0.021771639585494995 0.04232995584607124
0.0036438601091504097 0.023124899715185165 0.04534110426902771
0.003657505614683032 0.024397239089012146 0.04830615222454071
0.003614672925323248 0.02559479884803295 0.051222231239080436
0.0035364592913538218 0.02676860243082047 0.054065555334091187
0.003444118425250053 0.027966475114226338 0.05681382119655609
0.0033548057544976473 0.029200190678238872 0.05946153774857522
0.0032793087884783745 0.03043900616466999 0.062023039907217026
0.0032226084731519227 0.031637925654649734 0.06451930850744247
0.003185397945344448 0.03276754543185234 0.0669640600681305
0.0031655679922550917 0.033827878534793854 0.06935728341341019
0.0031594964675605297 0.03483816236257553 0.07169000804424286
0.0031630429439246655 0.03582077473402023 0.07395180314779282
0.003172241384163499 0.03679272532463074 0.07613473385572433
0.0031837469432502985 0.03776433318853378 0.0782339870929718
0.003195086726918816 0.03873959556221962 0.08024770766496658
0.0032047536224126816 0.03971690684556961 0.08217663317918777
0.0032121820840984583 0.04068992659449577 0.08402372151613235
0.003217642894014716 0.04164871945977211 0.08579360693693161
0.0032219537533819675 0.04258207604289055 0.08749151974916458
0.0032260718289762735 0.043480705469846725 0.08912179619073868
0.003230798291042447 0.044339217245578766 0.09068693965673447
0.0032366192899644375 0.04515690729022026 0.09218728542327881
0.0032436484470963474 0.04593757167458534 0.09362106025218964
0.003251639194786548 0.0466887541115284 0.0949847474694252
0.0032600469421595335 0.04742058739066124 0.09627361595630646
0.003268117550760508 0.04814369976520538 0.09748272597789764
0.0032749890815466647 0.04886413738131523 0.09860923886299133
0.0032797926105558872 0.049579184502363205 0.0996544361114502
0.003281744895502925 0.0502769760787487 0.10062384605407715
0.0032802252098917965 0.050938695669174194 0.10152623802423476
0.0032748340163379903 0.05154149234294891 0.10237226635217667
0.0032654285896569495 0.05205761641263962 0.10317488014698029
0.003252137918025255 0.05245327949523926 0.10394982993602753
0.0032353585120290518 0.05269406735897064 0.10471316426992415
0.0032157283276319504 0.052753571420907974 0.1054771915078163
0.0031940888147801156 0.05262130498886109 0.10624681413173674
0.003171431832015514 0.05230772867798805 0.10701714456081392
0.003148839809000492 0.05184539407491684 0.10777300596237181
0.00312742218375206 0.05128619074821472 0.10849020630121231

CELLS 50 150
2 0 1
2 1 2
2 2 3
2 3 4
2 4 5
2 5 6
2 6 7
2 7 8
2 8 9
2 9 10
2 10 11
2 11 12
2 12 13
2 13 14
2 14 15
2 15 16
2 16 17
2 17 18
2 18 19
2 19 20
2 20 21
2 21 22
2 22 23
2 23 24
2 24 25
2 25 26
2 26 27
2 27 28
2 28 29
2 29 30
2 30 31
2 31 32
2 32 33
2 33 34
2 34 35
2 35 36
2 36 37
2 37 38
2 38 39
2 39 40
2 40 41
2 41 42
2 42 43
2 43 44
2 44 45
2 45 46
2 46 47
2 47 48
2 48 49
2 49 50

CELL_TYPES 50
4
4
4
4
4
4
4
4
4
4
4
4
4
4
4
4
4
4
4
4
4
4
4
4
4
4
4
4
4
4
4
4
4
4
4
4
4
4
4
4
4
4
4
4
4
4
4
4
4
4

POINT_DATA 51

SCALARS zone float
LOOKUP_TABLE default
1.0
1.0
1.0
1.0
1.0
1.0
1.0
1.0
1.0
1.0
1.0
1.0
1.0
1.0
1.0
1.0
1.0
1.0
1.0
1.0
1.0
1.0
1.0
1.0
1.0
1.0
1.0
1.0
1.0
1.0
1.0
1.0
1.0
1.0
1.0
1.0
1.0
1.0
1.0
1.0
1.0
1.0
1.0
1.0
1.0
1.0
1.0
1.0
1.0
1.0
1.0

VECTORS normals float
0.00012213067384436727 0.00037368384073488414 0.0021079350262880325
0.00019123655511066318 0.001058015157468617 0.00402909517288208
8.932776836445555e-6 0.0015152270207181573 0.0037320584524422884
-0.0002260355104226619 0.00176653650123626 0.0035310355015099053
-0.0003527131921146065 0.0018615307053551076 0.003402903443202377
-0.00029881938826292753 0.0016718106344342232 0.0034075360745191574
-0.0001094483450287953 0.0014034496853128076 0.003448839299380779
8.717876335140318e-5 0.0013774018734693527 0.003377150278538466
0.00019969894492533058 0.0013776603154838085 0.003293194342404604
0.0002230970421805978 0.001295918715186417 0.0032474754843860865
0.0001877470058389008 0.001314694993197918 0.003154884558171034
0.00012237193004693836 0.0013531933072954416 0.003053097054362297
4.9504207709105685e-5 0.0013127989368513227 0.00298809795640409
-1.4593665582651738e-5 0.0012349497992545366 0.0029405641835182905
-6.0523194406414405e-5 0.0011856819037348032 0.0028797027189284563
-8.52772718644701e-5 0.0011858379002660513 0.002795794513076544
-9.082671022042632e-5 0.0012157945893704891 0.0026979900430887938
-8.240483293775469e-5 0.001236265292391181 0.00260460888966918
-6.609866250073537e-5 0.001218866789713502 0.00252888654358685
-4.695540701504797e-5 0.0011642700992524624 0.00247050984762609
-2.8520251362351697e-5 0.0010949767893180251 0.0024189865216612816
-1.2950749805895612e-5 0.0010353074176236987 0.002362975385040045
-1.2625629324247711e-6 0.0009964477503672242 0.0022972605656832457
6.37255334368092e-6 0.0009772832272574306 0.0022223617415875196
1.0352104254707228e-5 0.0009717792854644358 0.0021410926710814238
1.1422682291595265e-5 0.0009734337218105793 0.002056485740467906
1.050324772222666e-5 0.0009762865374796091 0.001971320016309619
8.547682227799669e-6 0.0009751659235917032 0.001888007274828851
6.444628070312319e-6 0.0009659064235165715 0.0018084895564243197
4.885740509052994e-6 0.0009460751316510141 0.0017339016776531935
4.214472937746905e-6 0.000915992830414325 0.0016640938119962811
4.422250640345737e-6 0.0008785708341747521 0.0015977085568010805
5.273810074868379e-6 0.0008381021907553078 0.0015327439177781343
6.425153969757957e-6 0.0007991775637492537 0.0014670593664050102
7.509945589845301e-6 0.0007659237016923726 0.0013987304409965873
8.1992238847306e-6 0.0007415076834149659 0.0013262804131954908
8.239160706580151e-6 0.0007274716626852751 0.001248990069143474
7.471068784070667e-6 0.0007217736565507948 0.0011678116861730814
5.837506250827573e-6 0.0007177426014095545 0.0010858559980988503
3.3778785564209097e-6 0.0007064204546622932 0.001007300103083253
2.163614567507466e-7 0.000679755408782512 0.0009358988027088344
-3.455363639659481e-6 0.0006322574918158352 0.0008742120116949081
-7.398393336188747e-6 0.00055946089560166 0.0008243221673183143
-1.1348053703841288e-5 0.00045589293586090207 0.0007887812680564821
-1.5035005162644666e-5 0.00031822556047700346 0.0007691412465646863
-1.8204780644737184e-5 0.00015014673408586532 0.0007636822410859168
-2.06348231586162e-5 -3.63823892257642e-5 0.0007668267353437841
-2.214833330071997e-5 -0.00022292209905572238 0.00076997623546049
-2.2624490156886168e-5 -0.0003879540890920907 0.0007630964391864836
-2.2004807760822587e-5 -0.000510768557433039 0.0007365303463302553
-1.070886446541408e-5 -0.0002796023909468204 0.00035859941272065043

CELL_DATA 50

VECTORS liftinglineloading               float
-0.5614928603172302 -0.6700034141540527 0.24386130273342133
-0.8849869966506958 -1.339002251625061 0.4873569607734681
-1.323613166809082 -2.0056190490722656 0.7299855947494507
0.0937778428196907 -0.40390416979789734 0.14700908958911896
1.1787116527557373 -0.30030369758605957 0.1093016043305397
2.1330196857452393 -0.4396818280220032 0.16003109514713287
1.3951680660247803 -0.2584458589553833 0.09406660497188568
-0.17163601517677307 -0.6640316843986511 0.24168777465820312
-1.9971696138381956 -1.059971809387207 0.3857981860637665
-4.267425060272217 -1.4793280363082886 0.5384314060211182
-6.530907154083253 -1.902484655380249 0.6924477815628052
-7.584315299987793 -2.1652133464813232 0.7880731821060181
-9.098129272460938 -2.252697706222534 0.819914937019348
-11.295496940612793 -2.114875555038452 0.769751787185669
-11.871772766113281 -2.238398551940918 0.8147104382514954
-11.845161437988281 -2.463621139526367 0.8966847658157349
-10.817300796508789 -2.4557487964630127 0.8938194513320923
-10.079879760742188 -2.3802671432495117 0.8663463592529298
-10.023210525512695 -2.350641965866089 0.8555637598037719
-9.731989860534668 -2.251601219177246 0.819515824317932
-9.597709655761719 -2.215938091278076 0.8065354824066162
-9.579621315002441 -2.1894214153289795 0.7968842387199402
-9.677093505859375 -2.1850359439849854 0.7952880859375
-9.29470443725586 -2.0526509284973145 0.7471038103103638
-9.530513763427734 -2.122873306274414 0.7726626992225647
-9.701759338378906 -2.112612247467041 0.7689279913902283
-9.674127578735352 -2.0848276615142822 0.7588152289390564
-10.191544532775879 -2.162980556488037 0.7872605323791504
-11.303326606750488 -2.2793936729431152 0.829631507396698
-10.730254173278809 -2.193047046661377 0.7982038855552673
-11.760014533996582 -2.2443363666534424 0.8168716430664061
-12.18404769897461 -2.1880109310150146 0.7963708639144897
-12.754179000854492 -2.068347215652466 0.7528168559074402
-13.245445251464844 -2.05454158782959 0.7477920055389404
-13.469939231872559 -1.9993102550506592 0.7276894450187683
-13.667938232421877 -1.9141504764556887 0.6966937780380249
-13.707598686218262 -1.7211565971374512 0.6264497637748718
-13.864402770996094 -1.636757493019104 0.5957310199737549
-13.52492618560791 -1.553643822669983 0.56548011302948
-13.225690841674803 -1.4530634880065918 0.5288718342781067
-12.788727760314941 -1.377083659172058 0.5012174248695374
-11.610442161560059 -1.3074004650115967 0.47585487365722656
-9.762323379516602 -1.2916898727416992 0.470136672258377
-8.334227561950684 -1.244280457496643 0.4528810381889343
-6.903014183044434 -1.3235787153244019 0.4817432463169098
-5.7502241134643555 -1.3567172288894653 0.49380469322204595
-4.568874835968018 -1.323872685432434 0.48185026645660395
-3.4662501811981206 -1.3176486492156982 0.47958487272262573
-2.3300740718841553 -1.2845381498336792 0.4675336480140686
-1.2418636083602905 -1.2412266731262207 0.45176956057548523