# vtk DataFile Version 4.0
 
ASCII
DATASET UNSTRUCTURED_GRID
POINTS 51 float
0.0034458015579730272 -0.007162618450820447 0.0014345935778692365
0.00369006278924644 -0.010672157630324364 -0.0010180081008002162
0.0038282745517790313 -0.014356879517436028 -0.00276714819483459
0.0037079283501952887 -0.018092939630150795 -0.004153081215918064
0.003376203589141369 -0.021848777309060097 -0.00526252668350935
0.0030025020241737366 -0.025537975132465366 -0.0063329110853374004
0.002778564812615514 -0.029032059013843536 -0.00771721312776208
0.0027836053632199764 -0.03240014612674713 -0.009225528687238693
0.0029529223684221506 -0.03575601056218147 -0.010545284487307072
0.003183003049343825 -0.03900573402643204 -0.011934502981603146
0.0033991164527833466 -0.042181339114904404 -0.01330520212650299
0.0035584971774369474 -0.04532667249441147 -0.014536923728883266
0.0036438601091504097 -0.04841277375817299 -0.015709228813648224
0.003657505614683032 -0.05140905827283859 -0.01690615527331829
0.003614672925323248 -0.054317843168973916 -0.018121331930160522
0.0035364592913538218 -0.05715838074684143 -0.01930186152458191
0.003444118425250053 -0.05994872376322747 -0.020398154854774475
0.0033548057544976473 -0.06269330531358719 -0.02139800228178501
0.0032793087884783745 -0.0653805360198021 -0.022333284839987755
0.0032226084731519227 -0.06799343228340149 -0.023250650614500046
0.003185397945344448 -0.07052089273929596 -0.024180585518479347
0.0031655679922550917 -0.0729629248380661 -0.025123082101345062
0.0031594964675605297 -0.07532679289579391 -0.026058193296194077
0.0031630429439246655 -0.07762093096971512 -0.026962710544466972
0.003172241384163499 -0.07985177636146545 -0.02781899832189083
0.0031837469432502985 -0.08202320337295532 -0.028616368770599365
0.003195086726918816 -0.0841367244720459 -0.02935066632926464
0.0032047536224126816 -0.08619174361228943 -0.03002355992794037
0.0032121820840984583 -0.0881858617067337 -0.030641619116067886
0.003217642894014716 -0.09011533111333847 -0.031215151771903038
0.0032219537533819675 -0.09197592735290527 -0.03175577521324158
0.0032260718289762735 -0.09376412630081177 -0.032273124903440475
0.003230798291042447 -0.09547790884971619 -0.03277278691530228
0.0032366192899644375 -0.09711700677871704 -0.033255498856306076
0.0032436484470963474 -0.09868285804986954 -0.0337173156440258
0.003251639194786548 -0.1001782938838005 -0.03415042161941528
0.0032600469421595335 -0.10160715132951736 -0.03454430773854256
0.003268117550760508 -0.10297343134880065 -0.03488795831799507
0.0032749890815466647 -0.10427942872047426 -0.035175103694200516
0.0032797926105558872 -0.10552410781383514 -0.03540855273604393
0.003281744895502925 -0.10670299082994461 -0.035600610077381134
0.0032802252098917965 -0.10780898481607437 -0.03577079251408577
0.0032748340163379903 -0.10883346199989317 -0.03594278544187546
0.0032654285896569495 -0.10976595431566238 -0.03614536300301552
0.003252137918025255 -0.11059369891881944 -0.036413561552762985
0.0032353585120290518 -0.11130371689796448 -0.03678305447101593
0.0032157283276319504 -0.11188604682683945 -0.037281230092048645
0.0031940888147801156 -0.11233672499656677 -0.03791896253824234
0.003171431832015514 -0.11265970021486281 -0.038685400038957596
0.003148839809000492 -0.11286725848913193 -0.039546795189380646
0.00312742218375206 -0.1129789724946022 -0.0404493473470211

CELLS 50 150
2 0 1
2 1 2
2 2 3
2 3 4
2 4 5
2 5 6
2 6 7
2 7 8
2 8 9
2 9 10
2 10 11
2 11 12
2 12 13
2 13 14
2 14 15
2 15 16
2 16 17
2 17 18
2 18 19
2 19 20
2 20 21
2 21 22
2 22 23
2 23 24
2 24 25
2 25 26
2 26 27
2 27 28
2 28 29
2 29 30
2 30 31
2 31 32
2 32 33
2 33 34
2 34 35
2 35 36
2 36 37
2 37 38
2 38 39
2 39 40
2 40 41
2 41 42
2 42 43
2 43 44
2 44 45
2 45 46
2 46 47
2 47 48
2 48 49
2 49 50

CELL_TYPES 50
4
4
4
4
4
4
4
4
4
4
4
4
4
4
4
4
4
4
4
4
4
4
4
4
4
4
4
4
4
4
4
4
4
4
4
4
4
4
4
4
4
4
4
4
4
4
4
4
4
4

POINT_DATA 51

SCALARS zone float
LOOKUP_TABLE default
1.0
1.0
1.0
1.0
1.0
1.0
1.0
1.0
1.0
1.0
1.0
1.0
1.0
1.0
1.0
1.0
1.0
1.0
1.0
1.0
1.0
1.0
1.0
1.0
1.0
1.0
1.0
1.0
1.0
1.0
1.0
1.0
1.0
1.0
1.0
1.0
1.0
1.0
1.0
1.0
1.0
1.0
1.0
1.0
1.0
1.0
1.0
1.0
1.0
1.0
1.0

VECTORS normals float
0.00012213067384436727 -0.0017547695897519588 -0.0012263008393347263
0.00019123655511066318 -0.003597130300477147 -0.002100870944559574
8.932776836445555e-6 -0.0037103912327438593 -0.001567536499351263
-0.0002260355104226619 -0.003745949128642678 -0.00124768924433738
-0.0003527131921146065 -0.003722517052665353 -0.0010899151675403118
-0.00029881938826292753 -0.0035916403867304325 -0.0012273432221263647
-0.0001094483450287953 -0.003431086428463459 -0.0014463089173659682
8.717876335140318e-5 -0.003361976006999612 -0.0014140355633571744
0.00019969894492533058 -0.003302793018519879 -0.0013544870307669044
0.0002230970421805978 -0.0032126649748533964 -0.0013799590524286032
0.0001877470058389008 -0.0031604699324816465 -0.0013012104900553823
0.00012237193004693836 -0.00311571778729558 -0.0012020134599879384
4.9504207709105685e-5 -0.0030411933548748493 -0.001184615190140903
-1.4593665582651738e-5 -0.0029525342397391796 -0.0012060514418408275
-6.0523194406414405e-5 -0.0028746610041707754 -0.0011978535912930965
-8.52772718644701e-5 -0.0028154393658041954 -0.0011384111130610108
-9.082671022042632e-5 -0.002767463680356741 -0.0010480704950168729
-8.240483293775469e-5 -0.0027159082237631083 -0.0009675651090219616
-6.609866250073537e-5 -0.0026500618550926447 -0.0009263238171115518
-4.695540701504797e-5 -0.002570177661255002 -0.0009236510377377272
-2.8520251362351697e-5 -0.0024847472086548805 -0.0009362163254991174
-1.2950749805895612e-5 -0.0024029489140957594 -0.00093880295753479
-1.2625629324247711e-6 -0.002329003531485796 -0.000919813523069024
6.37255334368092e-6 -0.0022624905686825514 -0.0008804034441709518
1.0352104254707228e-5 -0.0022011329419910908 -0.0008268294623121619
1.1422682291595265e-5 -0.0021424766164273024 -0.0007658335380256176
1.050324772222666e-5 -0.0020842726808041334 -0.0007035949965938926
8.547682227799669e-6 -0.00202456908300519 -0.0006454762769863009
6.444628070312319e-6 -0.001961794216185808 -0.0005957962712273002
4.885740509052994e-6 -0.0018950296798720956 -0.0005570774665102363
4.214472937746905e-6 -0.0018243967788293956 -0.0005289872642606497
4.422250640345737e-6 -0.0017509938916191457 -0.0005085071315988898
5.273810074868379e-6 -0.001676441403105855 -0.0004911859286949039
6.425153969757957e-6 -0.001602471456862986 -0.00047226375318132335
7.509945589845301e-6 -0.0015306416898965836 -0.0004474619345273823
8.1992238847306e-6 -0.001462146989069879 -0.000413496745750308
8.239160706580151e-6 -0.001397569547407329 -0.00036876919330097735
7.471068784070667e-6 -0.0013361385790631175 -0.0003153964935336262
5.837506250827573e-6 -0.0012753367191180587 -0.0002602954627946019
3.3778785564209097e-6 -0.001211783499456942 -0.0002127540501533076
2.163614567507466e-7 -0.0011424400145187974 -0.0001811207621358335
-3.455363639659481e-6 -0.0010652347700670362 -0.0001710876967990771
-7.398393336188747e-6 -0.0009784824214875698 -0.0001872852153610438
-1.1348053703841288e-5 -0.0008801175863482058 -0.00023538760433439163
-1.5035005162644666e-5 -0.0007688844343647361 -0.0003188455302733928
-1.8204780644737184e-5 -0.0006461746525019407 -0.00043383511365391314
-2.06348231586162e-5 -0.0005165021866559982 -0.0005679546156898141
-2.214833330071997e-5 -0.00038682567537762225 -0.0007020851480774581
-2.2624490156886168e-5 -0.00026526572764851153 -0.0008139156270772219
-2.2004807760822587e-5 -0.0001596377114765346 -0.0008819734794087707
-1.070886446541408e-5 -5.5859331041574485e-5 -0.00045127680641599

CELL_DATA 50

VECTORS liftinglineloading               float
-0.04001990333199501 0.12693777680397034 -0.2722189426422119
-0.24501344561576843 0.48954930901527405 -1.0498418807983398
-1.1356065273284912 1.0902395248413086 -2.338026285171509
2.677767753601074 0.0718044638633728 -0.1539851725101471
8.782211303710938 0.16485103964805603 -0.35352420806884766
15.902092933654783 0.24047748744487762 -0.5157056450843811
13.660739898681639 0.20379391312599182 -0.43703746795654297
4.321661472320557 0.32396864891052246 -0.6947530508041382
-7.317055225372315 1.8049772977828977 -3.8707861900329585
-20.564075469970703 3.16654634475708 -6.790680408477783
-31.501430511474613 4.051932334899902 -8.689396858215332
-36.45630645751953 4.367288112640381 -9.365679740905762
-39.45148468017578 4.608281135559082 -9.882490158081055
-39.712032318115234 4.211014270782471 -9.030549049377441
-38.89576721191406 3.5064830780029297 -7.51967716217041
-36.97922134399414 2.5797781944274902 -5.532352447509766
-32.772071838378906 2.2398054599761963 -4.80327844619751
-26.99468612670898 2.1642677783966064 -4.641287326812744
-19.996219635009766 1.8604063987731934 -3.9896545410156254
-13.283502578735352 1.4341250658035278 -3.075491189956665
-7.113308429718017 1.0056287050247192 -2.1565775871276855
-3.4470846652984615 0.7529860734939575 -1.614783763885498
-1.5688934326171875 0.631532609462738 -1.3543260097503662
-2.310544729232788 0.7090191841125488 -1.5204966068267822
-2.9067678451538086 0.7542207837104797 -1.6174317598342896
-3.5004076957702632 0.7926174998283386 -1.6997736692428589
-4.349907398223877 0.833382785320282 -1.787195086479187
-5.477725505828857 0.8991173505783082 -1.9281634092330933
-8.051121711730957 1.027288556098938 -2.2030274868011475
-8.11517333984375 1.0190386772155762 -2.185335397720337
-9.941483497619629 1.0922759771347046 -2.342393398284912
-10.486296653747559 1.062678575515747 -2.278921604156494
-11.080976486206055 1.0120981931686401 -2.1704516410827637
-11.458659172058105 1.0241705179214478 -2.196340799331665
-11.603373527526855 0.9959397315979004 -2.1357996463775635
-11.624282836914062 0.9558250308036804 -2.0497734546661377
-11.449260711669922 0.8560234904289246 -1.8357483148574827
-11.765666007995605 0.8239890933036804 -1.7670502662658691
-11.321416854858398 0.7805605530738831 -1.6739175319671633
-10.989898681640625 0.7294924259185791 -1.564401626586914
-10.450703620910645 0.6972339153289795 -1.4952229261398315
-9.214831352233887 0.6596686244010925 -1.4146639108657837
-7.878427982330322 0.6366673111915588 -1.3653374910354614
-6.738076210021973 0.6123427748680115 -1.3131734132766724
-5.7826948165893555 0.6119714975357056 -1.3123770952224731
-4.649717807769775 0.6151393055915833 -1.3191704750061035
-3.6486825942993164 0.5893018841743469 -1.2637619972229004
-2.725294351577759 0.5821807980537415 -1.248490810394287
-1.8552801609039307 0.5607960224151611 -1.2026309967041016
-0.9494959712028502 0.5316154360771179 -1.1400529146194458