# vtk DataFile Version 4.0
 
ASCII
DATASET UNSTRUCTURED_GRID
POINTS 51 float
0.0034458015579730272 0.0069203064776957035 0.0023389148991554976
0.00369006278924644 0.008733355440199375 0.0062176999635994434
0.0038282745517790313 0.011049848049879074 0.009574860334396362
0.0037079283501952887 0.013592405244708061 0.01264314353466034
0.003376203589141369 0.016290333122015 0.015481870621442795
0.0030025020241737366 0.018950078636407852 0.018253449350595474
0.002778564812615514 0.021283892914652824 0.021199330687522888
0.0027836053632199764 0.02344658598303795 0.02418961562216282
0.0029529223684221506 0.025692971423268318 0.027010489255189896
0.003183003049343825 0.027812704443931576 0.029838450253009796
0.0033991164527833466 0.029877509921789173 0.03261331468820572
0.0035584971774369474 0.03198558837175369 0.035252682864665985
0.0036438601091504097 0.03407207876443863 0.037810977548360825
0.003657505614683032 0.036068473011255264 0.0403456874191761
0.003614672925323248 0.03797996789216995 0.042852457612752914
0.0035364592913538218 0.03984967991709709 0.04529509320855141
0.003444118425250053 0.04171803966164589 0.04763967916369438
0.0033548057544976473 0.04359499737620354 0.049877867102622986
0.0032793087884783745 0.045454565435647964 0.05203146114945412
0.0032226084731519227 0.04725871607661247 0.054132368415594094
0.003185397945344448 0.04898259416222572 0.056201450526714325
0.0031655679922550917 0.050626207143068314 0.058238692581653595
0.0031594964675605297 0.05220581963658333 0.06023045256733895
0.0031630429439246655 0.05374034494161606 0.06216086074709892
0.003172241384163499 0.055244162678718574 0.06401784718036652
0.0031837469432502985 0.056725990027189255 0.06579410284757614
0.003195086726918816 0.058189209550619125 0.06748678535223007
0.0032047536224126816 0.05963246151804924 0.06909703463315964
0.0032121820840984583 0.06105038896203041 0.07062935084104538
0.003217642894014716 0.06243459135293961 0.07209078222513199
0.0032219537533819675 0.06377559900283813 0.07348927110433578
0.0032260718289762735 0.06506555527448654 0.07483141124248505
0.003230798291042447 0.06629990041255951 0.076121024787426
0.0032366192899644375 0.06747804582118988 0.07735861092805862
0.0032436484470963474 0.06860320270061493 0.07854148000478745
0.003251639194786548 0.06968173384666443 0.07966428250074387
0.0032600469421595335 0.07072221487760544 0.08071982115507126
0.003268117550760508 0.07173363119363785 0.08170057833194733
0.0032749890815466647 0.07272107899188995 0.08260224759578705
0.0032797926105558872 0.0736822783946991 0.08342675864696503
0.003281744895502925 0.07460720092058182 0.08418253064155579
0.0032802252098917965 0.07547992467880249 0.08488290756940842
0.0032748340163379903 0.07628115266561508 0.08554409444332123
0.0032654285896569495 0.07698742300271988 0.08618577569723129
0.003252137918025255 0.07757017016410828 0.08683191984891891
0.0032353585120290518 0.07800032198429108 0.08750692009925842
0.0032157283276319504 0.0782555416226387 0.08822951465845108
0.0031940888147801156 0.07832697778940201 0.08900714665651321
0.003171431832015514 0.07822345942258835 0.08983238786458969
0.003148839809000492 0.07797251641750336 0.09068215638399124
0.00312742218375206 0.07761798799037933 0.09151965379714966

CELLS 50 150
2 0 1
2 1 2
2 2 3
2 3 4
2 4 5
2 5 6
2 6 7
2 7 8
2 8 9
2 9 10
2 10 11
2 11 12
2 12 13
2 13 14
2 14 15
2 15 16
2 16 17
2 17 18
2 18 19
2 19 20
2 20 21
2 21 22
2 22 23
2 23 24
2 24 25
2 25 26
2 26 27
2 27 28
2 28 29
2 29 30
2 30 31
2 31 32
2 32 33
2 33 34
2 34 35
2 35 36
2 36 37
2 37 38
2 38 39
2 39 40
2 40 41
2 41 42
2 42 43
2 43 44
2 44 45
2 45 46
2 46 47
2 47 48
2 48 49
2 49 50

CELL_TYPES 50
4
4
4
4
4
4
4
4
4
4
4
4
4
4
4
4
4
4
4
4
4
4
4
4
4
4
4
4
4
4
4
4
4
4
4
4
4
4
4
4
4
4
4
4
4
4
4
4
4
4

POINT_DATA 51

SCALARS zone float
LOOKUP_TABLE default
1.0
1.0
1.0
1.0
1.0
1.0
1.0
1.0
1.0
1.0
1.0
1.0
1.0
1.0
1.0
1.0
1.0
1.0
1.0
1.0
1.0
1.0
1.0
1.0
1.0
1.0
1.0
1.0
1.0
1.0
1.0
1.0
1.0
1.0
1.0
1.0
1.0
1.0
1.0
1.0
1.0
1.0
1.0
1.0
1.0
1.0
1.0
1.0
1.0
1.0
1.0

VECTORS normals float
0.00012213067384436727 0.0009065245976671576 0.001939392532221973
0.00019123655511066318 0.0020647707860916853 0.003617972601205111
8.932776836445555e-6 0.0024295246694236994 0.0032127220183610916
-0.0002260355104226619 0.0026202425360679626 0.0029535051435232162
-0.0003527131921146065 0.002678836928680539 0.002805152675136924
-0.00029881938826292753 0.002496780129149556 0.002858730498701334
-0.0001094483450287953 0.0022482536733150482 0.002968083368614316
8.717876335140318e-5 0.0022045387886464596 0.0029055788181722164
0.00019969894492533058 0.002183058997616172 0.0028244166169315577
0.0002230970421805978 0.0020922699477523565 0.0028014120180159807
0.0001877470058389008 0.0020864421967417 0.0027071163058280945
0.00012237193004693836 0.0020972839556634426 0.0025988330598920584
4.9504207709105685e-5 0.002041443018242717 0.0025465034414082766
-1.4593665582651738e-5 0.0019539438653737307 0.0025207381695508957
-6.0523194406414405e-5 0.0018906026380136607 0.0024747021961957216
-8.52772718644701e-5 0.0018690363503992558 0.002393612638115883
-9.082671022042632e-5 0.001872658496722579 0.002291387412697077
-8.240483293775469e-5 0.0018682630034163594 0.002195890061557293
-6.609866250073537e-5 0.0018318588845431805 0.002127250889316201
-4.695540701504797e-5 0.0017640136647969486 0.002084993990138173
-2.8520251362351697e-5 0.0016837461153045299 0.002053160686045885
-1.2950749805895612e-5 0.0016116132028400898 0.0020145017188042402
-1.2625629324247711e-6 0.0015570693649351597 0.0019610836170613766
6.37255334368092e-6 0.0015191725688055158 0.0018936970736831427
1.0352104254707228e-5 0.0014928223099559546 0.0018166217487305403
1.1422682291595265e-5 0.0014725225046277046 0.0017344696680083873
1.050324772222666e-5 0.001453235512599349 0.0016514675226062534
8.547682227799669e-6 0.00143059017136693 0.0015712834428995848
6.444628070312319e-6 0.001401065499521792 0.0014968718169257045
4.885740509052994e-6 0.0013626051368191838 0.0014299581525847316
4.214472937746905e-6 0.0013154803309589624 0.0013703147415071726
4.422250640345737e-6 0.0012621516361832619 0.0013158770743757486
5.273810074868379e-6 0.0012062478344887495 0.0012636001920327544
6.425153969757957e-6 0.001151649164967239 0.0012102281907573342
7.509945589845301e-6 0.0011018435470759869 0.001152834272943437
8.1992238847306e-6 0.0010595080675557256 0.0010891722049564123
8.239160706580151e-6 0.0010259461123496294 0.0010181482648476958
7.471068784070667e-6 0.0009994317078962922 0.0009412106592208148
5.837506250827573e-6 0.0009743263362906873 0.0008630908560007812
3.3778785564209097e-6 0.0009430582285858691 0.000790142104960978
2.163614567507466e-7 0.0008988217450678349 0.0007280752179212868
-3.455363639659481e-6 0.0008369765710085629 0.0006807837053202093
-7.398393336188747e-6 0.0007537479978054762 0.0006514349370263517
-1.1348053703841288e-5 0.0006445103790611029 0.0006439104327000678
-1.5035005162644666e-5 0.000506450654938817 0.0006605705129913986
-1.8204780644737184e-5 0.00034268610761500895 0.0006987995584495366
-2.06348231586162e-5 0.00016332668019458652 0.0007501142099499702
-2.214833330071997e-5 -1.604169847269077e-5 0.0008014363702386617
-2.2624490156886168e-5 -0.00017723097698763013 0.0008375045144930482
-2.2004807760822587e-5 -0.00030273644370026886 0.0008436302887275815
-1.070886446541408e-5 -0.00017726280202623457 0.00041874684393405914

CELL_DATA 50

VECTORS liftinglineloading               float
-0.4248539805412293 -0.6764684319496155 0.47366830706596375
-0.7665712237358093 -1.5316808223724365 1.0724945068359375
-1.5135616064071655 -2.5345399379730225 1.7747039794921875
1.2039953470230103 -0.16271205246448517 0.11393220722675323
4.146084308624268 -0.4851912558078766 0.33973458409309387
6.653225898742677 -0.6550626754760742 0.4586798250675201
4.6168293952941895 -0.36013978719711304 0.252172589302063
1.0674206018447876 -0.4505320191383361 0.31546592712402344
-2.3216798305511475 -1.1150389909744263 0.7807586789131165
-5.615816593170166 -1.679511547088623 1.1760066747665405
-7.045718193054199 -1.890366077423096 1.3236485719680786
-7.999120235443115 -1.8992862701416016 1.3298945426940918
-8.908827781677246 -1.5959997177124023 1.1175310611724854
-7.470953941345216 -1.5612672567367554 1.093211054801941
-5.350642681121826 -1.3500349521636963 0.9453046917915344
-3.804387092590332 -1.0675750970840454 0.7475241422653198
-3.2177209854125977 -0.9291068911552429 0.6505676507949829
-3.4604856967926025 -0.9774271845817566 0.6844018697738647
-4.431615829467773 -1.185198426246643 0.8298848271369934
-5.962618827819824 -1.3860830068588257 0.9705458283424376
-7.471870422363281 -1.5816279649734497 1.107467770576477
-8.743188858032227 -1.723498821258545 1.2068068981170654
-10.61331844329834 -1.9039278030395508 1.3331446647644043
-10.47374439239502 -1.8168953657150269 1.272203803062439
-10.72408676147461 -1.8885635137557983 1.322386384010315
-10.362893104553223 -1.8519773483276367 1.2967685461044312
-10.223182678222656 -1.8229104280471802 1.2764155864715576
-10.592700004577637 -1.882467746734619 1.3181180953979492
-11.428205490112305 -1.9651563167572021 1.3760172128677368
-10.63140869140625 -1.8817613124847414 1.317623496055603
-11.362801551818848 -1.915587067604065 1.3413084745407104
-11.504863739013672 -1.858829855918884 1.30156672000885
-11.800100326538086 -1.7532405853271484 1.2276322841644287
-12.037336349487305 -1.7504403591156004 1.2256715297698975
-12.026959419250488 -1.7065958976745605 1.1949713230133057
-12.027395248413086 -1.6384134292602537 1.1472294330596924
-11.907343864440918 -1.4736056327819824 1.0318297147750854
-12.080499649047852 -1.4118050336837769 0.9885565042495729
-11.705158233642578 -1.3418842554092407 0.939597487449646
-11.421685218811035 -1.2573158740997314 0.8803820013999938
-10.986980438232422 -1.1999807357788086 0.8402355909347534
-9.86121940612793 -1.1380804777145386 0.796892523765564
-8.288664817810059 -1.1108133792877197 0.7777999043464661
-7.177242755889892 -1.0702250003814697 0.749379575252533
-6.1363325119018555 -1.1118313074111938 0.7785126566886902
-5.0249834060668945 -1.130035400390625 0.7912593483924866
-3.9670896530151367 -1.0931990146636963 0.7654662132263184
-2.984861135482788 -1.0843377113342285 0.759261429309845
-2.0152297019958496 -1.0511163473129272 0.735999584197998
-1.0430433750152588 -1.000487208366394 0.7005486488342285