# vtk DataFile Version 4.0
 
ASCII
DATASET UNSTRUCTURED_GRID
POINTS 51 float
0.0034458015579730272 -0.005283459555357695 -0.005044424440711737
0.00369006278924644 -0.005287394858896732 -0.0093260258436203
0.0038282745517790313 -0.005968052428215742 -0.013347637839615347
0.0037079283501952887 -0.0069756791926920405 -0.01720297895371914
0.003376203589141369 -0.008221134543418884 -0.020915931090712547
0.0030025020241737366 -0.009460363537073135 -0.024551892653107643
0.002778564812615514 -0.010330533608794212 -0.028208080679178238
0.0027836053632199764 -0.01102684997022152 -0.031832192093133926
0.0029529223684221506 -0.011870614252984524 -0.035338133573532104
0.003183003049343825 -0.012596596963703632 -0.03879697620868683
0.0033991164527833466 -0.013295238837599754 -0.04218447953462601
0.0035584971774369474 -0.014090360142290592 -0.045467473566532135
0.0036438601091504097 -0.014900180511176586 -0.04866786673665047
0.003657505614683032 -0.015638314187526703 -0.05180880799889564
0.003614672925323248 -0.01631130836904049 -0.054888542741537094
0.0035364592913538218 -0.01697354204952717 -0.05789249762892723
0.003444118425250053 -0.017675984650850296 -0.060807019472122185
0.0033548057544976473 -0.01843118667602539 -0.06362874060869217
0.0032793087884783745 -0.01920638047158718 -0.06636644899845123
0.0032226084731519227 -0.019953612238168716 -0.06903298199176788
0.003185397945344448 -0.020641546696424484 -0.07163675129413605
0.0031655679922550917 -0.02127019129693508 -0.07417774200439453
0.0031594964675605297 -0.02186005190014839 -0.0766504630446434
0.0031630429439246655 -0.022434979677200317 -0.0790485218167305
0.003172241384163499 -0.023013105615973473 -0.08136706799268723
0.0031837469432502985 -0.02360541746020317 -0.0836031436920166
0.003195086726918816 -0.0242161862552166 -0.08575562387704849
0.0032047536224126816 -0.024843694642186165 -0.08782494813203812
0.0032121820840984583 -0.02548118866980076 -0.08981294184923172
0.003217642894014716 -0.026118077337741855 -0.09172243624925613
0.0032219537533819675 -0.026742415502667424 -0.09355662763118744
0.0032260718289762735 -0.02734429761767387 -0.09531818330287933
0.003230798291042447 -0.027917984873056412 -0.09700862318277359
0.0032366192899644375 -0.028462719172239307 -0.09862817078828812
0.0032436484470963474 -0.028982551768422127 -0.10017572343349457
0.003251639194786548 -0.029485519975423813 -0.10164912790060042
0.0032600469421595335 -0.02998242527246475 -0.10304550826549531
0.003268117550760508 -0.03048459067940712 -0.10436180979013443
0.0032749890815466647 -0.030998464673757557 -0.10559631139039995
0.0032797926105558872 -0.03152115270495415 -0.10674979537725447
0.003281744895502925 -0.03204001113772392 -0.10782564431428909
0.0032802252098917965 -0.03253497555851936 -0.10882923752069472
0.0032748340163379903 -0.03298170492053032 -0.1097670868039131
0.0032654285896569495 -0.033350616693496704 -0.11064713448286057
0.003252137918025255 -0.03360569477081299 -0.1114790141582489
0.0032353585120290518 -0.03371027857065201 -0.11227256059646606
0.0032157283276319504 -0.03363620489835739 -0.11303532123565674
0.0031940888147801156 -0.03337230160832405 -0.11377028375864029
0.003171431832015514 -0.03292972221970558 -0.11447446048259735
0.003148839809000492 -0.03234316036105156 -0.11513855308294295
0.00312742218375206 -0.031667910516262054 -0.11574774980545044

CELLS 50 150
2 0 1
2 1 2
2 2 3
2 3 4
2 4 5
2 5 6
2 6 7
2 7 8
2 8 9
2 9 10
2 10 11
2 11 12
2 12 13
2 13 14
2 14 15
2 15 16
2 16 17
2 17 18
2 18 19
2 19 20
2 20 21
2 21 22
2 22 23
2 23 24
2 24 25
2 25 26
2 26 27
2 27 28
2 28 29
2 29 30
2 30 31
2 31 32
2 32 33
2 33 34
2 34 35
2 35 36
2 36 37
2 37 38
2 38 39
2 39 40
2 40 41
2 41 42
2 42 43
2 43 44
2 44 45
2 45 46
2 46 47
2 47 48
2 48 49
2 49 50

CELL_TYPES 50
4
4
4
4
4
4
4
4
4
4
4
4
4
4
4
4
4
4
4
4
4
4
4
4
4
4
4
4
4
4
4
4
4
4
4
4
4
4
4
4
4
4
4
4
4
4
4
4
4
4

POINT_DATA 51

SCALARS zone float
LOOKUP_TABLE default
1.0
1.0
1.0
1.0
1.0
1.0
1.0
1.0
1.0
1.0
1.0
1.0
1.0
1.0
1.0
1.0
1.0
1.0
1.0
1.0
1.0
1.0
1.0
1.0
1.0
1.0
1.0
1.0
1.0
1.0
1.0
1.0
1.0
1.0
1.0
1.0
1.0
1.0
1.0
1.0
1.0
1.0
1.0
1.0
1.0
1.0
1.0
1.0
1.0
1.0
1.0

VECTORS normals float
0.00012213067384436727 -1.96763789972465e-6 -0.002140800468623638
0.00019123655511066318 -0.0003422964655328542 -0.0041516064666211605
8.932776836445555e-6 -0.0008441421668976546 -0.003938476555049419
-0.0002260355104226619 -0.0011265409411862493 -0.003784146858379245
-0.0003527131921146065 -0.0012423419393599033 -0.0036744570825248952
-0.00029881938826292753 -0.0010546996491029859 -0.0036460747942328453
-0.0001094483450287953 -0.0007832434494048357 -0.003640150185674429
8.717876335140318e-5 -0.0007700400892645121 -0.0035650269128382206
0.00019969894492533058 -0.0007848733803257346 -0.00348239135928452
0.0002230970421805978 -0.0007123126415535808 -0.0034231729805469513
0.0001877470058389008 -0.0007468818803317845 -0.0033352491445839405
0.00012237193004693836 -0.0008024705457501113 -0.0032416931353509426
4.9504207709105685e-5 -0.0007739768479950726 -0.0031706669833511114
-1.4593665582651738e-5 -0.0007055645692162216 -0.003110337071120739
-6.0523194406414405e-5 -0.0006676135817542672 -0.0030418450478464365
-8.52772718644701e-5 -0.0006823377916589379 -0.002959238598123193
-9.082671022042632e-5 -0.0007288228371180594 -0.0028681219555437565
-8.240483293775469e-5 -0.0007651980267837644 -0.002779714297503233
-6.609866250073537e-5 -0.0007612129556946456 -0.0027021211571991444
-4.695540701504797e-5 -0.0007175827049650252 -0.00263515068218112
-2.8520251362351697e-5 -0.0006582890055142343 -0.0025723774451762438
-1.2950749805895612e-5 -0.000609252427238971 -0.0025068556424230337
-1.2625629324247711e-6 -0.0005823943647556007 -0.002435391303151846
6.37255334368092e-6 -0.0005765270325355232 -0.0023583024740219116
1.0352104254707228e-5 -0.0005852189497090876 -0.002277312334626913
1.1422682291595265e-5 -0.0006015400285832584 -0.002194278175011277
1.050324772222666e-5 -0.0006191383581608534 -0.00211090175434947
8.547682227799669e-6 -0.0006325019639916718 -0.0020286599174141884
6.444628070312319e-6 -0.0006371912313625216 -0.001948742428794503
4.885740509052994e-6 -0.0006306132418103516 -0.0018718440551310775
4.214472937746905e-6 -0.0006131100235506892 -0.0017978729447349906
4.422250640345737e-6 -0.000587784219533205 -0.0017259980086237192
5.273810074868379e-6 -0.0005592113011516631 -0.0016549930442124605
6.425153969757957e-6 -0.0005322840879671276 -0.0015835472149774432
7.509945589845301e-6 -0.0005114006344228983 -0.0015104818157851696
8.1992238847306e-6 -0.0004999363445676863 -0.0014348926488310099
8.239160706580151e-6 -0.0004995348863303661 -0.0013563391985371709
7.471068784070667e-6 -0.0005080199334770441 -0.0012754047056660056
5.837506250827573e-6 -0.0005182815948501229 -0.0011939940741285682
3.3778785564209097e-6 -0.0005207725334912539 -0.0011146656470373273
2.163614567507466e-7 -0.0005069112521596253 -0.0010397187434136868
-3.455363639659481e-6 -0.000470846745884046 -0.0009707211283966898
-7.398393336188747e-6 -0.0004078194033354521 -0.0009089482482522726
-1.1348053703841288e-5 -0.00031199646764434874 -0.0008559629204683006
-1.5035005162644666e-5 -0.00017983101133722812 -0.0008127155015245081
-1.8204780644737184e-5 -1.5253642231982667e-5 -0.0007781528984196484
-2.06348231586162e-5 0.0001689877244643867 -0.000748859194573015
-2.214833330071997e-5 0.0003532403788994998 -0.000719568517524749
-2.2624490156886168e-5 0.0005145705072209239 -0.000684135768096894
-2.2004807760822587e-5 0.0006309059681370854 -0.0006366467569023371
-1.070886446541408e-5 0.0003376247186679393 -0.0003045990306418389

CELL_DATA 50

VECTORS liftinglineloading               float
-0.005271888338029385 0.137928307056427 -0.024320481345057487
-0.0961315706372261 0.5114233493804932 -0.0901777371764183
-0.5189193487167358 1.1552284955978394 -0.20369794964790344
1.2570302486419678 0.08060997724533081 -0.014213714748620989
4.089498043060303 0.19386306405067444 -0.03418328985571861
8.114509582519531 0.16865532100200653 -0.029738483950495716
8.039205551147461 -0.1016409769654274 0.017922045662999153
3.504159450531006 -0.18348847329616547 0.032353971153497696
-3.3220772743225098 1.799047589302063 -0.31722062826156616
-9.21583080291748 3.3630447387695312 -0.5929955244064331
-14.761797904968263 4.349147796630859 -0.7668721079826355
-19.827146530151367 4.549558162689209 -0.8022097945213318
-20.06148338317871 4.547540187835693 -0.8018540740013123
-19.682615280151367 4.662588596343994 -0.8221401572227478
-19.217281341552734 4.705137729644775 -0.8296427130699158
-18.41632652282715 4.532357692718506 -0.7991769909858704
-17.805776596069336 4.314573764801025 -0.7607757449150085
-17.305757522583008 4.139260768890381 -0.7298634052276611
-17.466415405273438 3.9778745174407963 -0.7014065980911255
-17.459693908691406 3.818362474441528 -0.6732803583145142
-17.342695236206055 3.6919689178466797 -0.6509937047958374
-17.332592010498047 3.5721616744995117 -0.6298685073852539
-17.531030654907227 3.4981391429901127 -0.6168162822723389
-16.8975772857666 3.228937864303589 -0.5693488717079163
-17.496212005615234 3.2924001216888428 -0.5805389881134033
-18.11732292175293 3.2342946529388428 -0.5702934265136719
-18.482027053833008 3.1700429916381836 -0.5589641332626343
-19.87984275817871 3.251088619232178 -0.5732546448707581
-20.189802169799805 3.180830240249634 -0.5608661770820618
-20.5887393951416 3.105684757232666 -0.5476160049438477
-21.20348358154297 3.0008018016815186 -0.5291222929954529
-21.46268653869629 2.910498857498169 -0.513199508190155
-21.660564422607422 2.699144124984741 -0.47593194246292114
-21.60902976989746 2.5222063064575195 -0.44473302364349365
-21.455026626586914 2.407168388366699 -0.42444872856140137
-21.114852905273438 2.2658133506774902 -0.3995240330696106
-20.59767723083496 2.0332531929016113 -0.3585174083709717
-19.87163734436035 1.9029650688171384 -0.33554407954216003
-18.948579788208008 1.8017719984054565 -0.3177010118961334
-18.092266082763672 1.6811375617980955 -0.29642993211746216
-17.19436264038086 1.5721396207809448 -0.27721062302589417
-15.464285850524902 1.4996787309646606 -0.2644338309764862
-12.826082229614258 1.513754963874817 -0.26691582798957825
-10.746672630310059 1.460885763168335 -0.25759357213974
-8.685519218444824 1.6016993522644043 -0.282422810792923
-7.252216339111327 1.643937349319458 -0.2898705005645752
-5.714111804962158 1.6075752973556519 -0.2834588885307312
-4.332079887390137 1.5947809219360352 -0.28120291233062744
-2.864137887954712 1.5528061389923096 -0.2738015949726105
-1.5276373624801636 1.501269817352295 -0.26471439003944397