# vtk DataFile Version 4.0
 
ASCII
DATASET UNSTRUCTURED_GRID
POINTS 51 float
0.0034458015579730272 -0.0026565745938569307 -0.006804687902331353
0.00369006278924644 -0.0008506585145369172 -0.010686798952519894
0.0038282745517790313 0.00023206305922940376 -0.014619275927543638
0.0037079283501952887 0.0009481803863309323 -0.018539242446422577
0.003376203589141369 0.0013885765802115202 -0.022430673241615295
0.0030025020241737366 0.0018020774004980922 -0.026249693706631657
0.002778564812615514 0.002558607142418623 -0.029931075870990757
0.0027836053632199764 0.0034591460134834047 -0.033509913831949234
0.0029529223684221506 0.004176111426204443 -0.037043966352939606
0.003183003049343825 0.004979916848242283 -0.040485553443431854
0.0033991164527833466 0.005778353661298752 -0.043850935995578766
0.0035584971774369474 0.006445181556046009 -0.04716236889362335
0.0036438601091504097 0.007063780445605516 -0.05040515586733818
0.003657505614683032 0.007722222711890936 -0.053563762456178665
0.003614672925323248 0.008413833566009998 -0.05663936957716942
0.0035364592913538218 0.009083174169063568 -0.05964175239205361
0.003444118425250053 0.009678274393081665 -0.06258007138967514
0.0033548057544976473 0.010186339728534222 -0.0654565840959549
0.0032793087884783745 0.010640780441462994 -0.0682653933763504
0.0032226084731519227 0.011090485379099846 -0.07099789381027222
0.003185397945344448 0.011567404493689537 -0.07364843785762787
0.0031655679922550917 0.012071527540683746 -0.07621703296899796
0.0031594964675605297 0.012581950053572655 -0.07870736718177795
0.0031630429439246655 0.013074352405965326 -0.0811237245798111
0.003172241384163499 0.01353025157004595 -0.08346936106681824
0.0031837469432502985 0.013938442803919315 -0.08574626594781876
0.003195086726918816 0.014294574037194252 -0.08795519173145294
0.0032047536224126816 0.014600394293665884 -0.09009583294391632
0.0032121820840984583 0.014862788841128348 -0.09216698259115219
0.003217642894014716 0.015092560090124609 -0.09416673332452774
0.0032219537533819675 0.015301880426704884 -0.09609293192625046
0.0032260718289762735 0.015500854700803758 -0.09794381260871887
0.003230798291042447 0.015695329755544662 -0.09971832484006882
0.0032366192899644375 0.015886079519987106 -0.10141634196043016
0.0032436484470963474 0.016068976372480392 -0.10303859412670135
0.003251639194786548 0.016235822811722755 -0.10458651930093765
0.0032600469421595335 0.016375606879591942 -0.10606206208467485
0.003268117550760508 0.016476783901453018 -0.10746726393699646
0.0032749890815466647 0.01653278060257435 -0.10880327969789504
0.0032797926105558872 0.016546547412872314 -0.11006958782672883
0.003281744895502925 0.016530975699424744 -0.11126391589641572
0.0032802252098917965 0.01650651916861534 -0.11238265782594682
0.0032748340163379903 0.016498001292347908 -0.11342144012451172
0.0032654285896569495 0.016535576432943344 -0.11437493562698363
0.003252137918025255 0.01665596291422844 -0.11523667722940445
0.0032353585120290518 0.016896549612283707 -0.11600007861852646
0.0032157283276319504 0.017286036163568497 -0.11666006594896317
0.0031940888147801156 0.017835821956396103 -0.117214635014534
0.003171431832015514 0.018534531816840172 -0.11766579747200012
0.003148839809000492 0.019346795976161957 -0.11801977455615997
0.00312742218375206 0.020216239616274834 -0.11828652769327162

CELLS 50 150
2 0 1
2 1 2
2 2 3
2 3 4
2 4 5
2 5 6
2 6 7
2 7 8
2 8 9
2 9 10
2 10 11
2 11 12
2 12 13
2 13 14
2 14 15
2 15 16
2 16 17
2 17 18
2 18 19
2 19 20
2 20 21
2 21 22
2 22 23
2 23 24
2 24 25
2 25 26
2 26 27
2 27 28
2 28 29
2 29 30
2 30 31
2 31 32
2 32 33
2 33 34
2 34 35
2 35 36
2 36 37
2 37 38
2 38 39
2 39 40
2 40 41
2 41 42
2 42 43
2 43 44
2 44 45
2 45 46
2 46 47
2 47 48
2 48 49
2 49 50

CELL_TYPES 50
4
4
4
4
4
4
4
4
4
4
4
4
4
4
4
4
4
4
4
4
4
4
4
4
4
4
4
4
4
4
4
4
4
4
4
4
4
4
4
4
4
4
4
4
4
4
4
4
4
4

POINT_DATA 51

SCALARS zone float
LOOKUP_TABLE default
1.0
1.0
1.0
1.0
1.0
1.0
1.0
1.0
1.0
1.0
1.0
1.0
1.0
1.0
1.0
1.0
1.0
1.0
1.0
1.0
1.0
1.0
1.0
1.0
1.0
1.0
1.0
1.0
1.0
1.0
1.0
1.0
1.0
1.0
1.0
1.0
1.0
1.0
1.0
1.0
1.0
1.0
1.0
1.0
1.0
1.0
1.0
1.0
1.0
1.0
1.0

VECTORS normals float
0.00012213067384436727 0.0009029580396600068 -0.0019410556415095925
0.00019123655511066318 0.0014443187974393368 -0.003907294012606144
8.932776836445555e-6 0.0008994194213300943 -0.003926221746951342
-0.0002260355104226619 0.0005782567895948887 -0.0039056986570358276
-0.0003527131921146065 0.00042694853618741035 -0.0038552253972738986
-0.00029881938826292753 0.0005850152811035514 -0.003750201314687729
-0.0001094483450287953 0.0008285343064926565 -0.0036301093641668554
8.717876335140318e-5 0.0008087522001005709 -0.0035564447753131385
0.00019969894492533058 0.000760385359171778 -0.003487820271402598
0.0002230970421805978 0.0008011209429241716 -0.003403484588488937
0.0001877470058389008 0.0007326323539018631 -0.003338408190757036
0.00012237193004693836 0.0006427134503610432 -0.0032771106343716383
4.9504207709105685e-5 0.0006385205197148025 -0.0032006970141082998
-1.4593665582651738e-5 0.0006750266184099019 -0.0031171070877462626
-6.0523194406414405e-5 0.0006804758450016379 -0.0030389935709536076
-8.52772718644701e-5 0.0006322202389128506 -0.002970349509268999
-9.082671022042632e-5 0.0005515829543583095 -0.0029074151534587145
-8.240483293775469e-5 0.0004812530823983252 -0.0028426633216440678
-6.609866250073537e-5 0.00045207247603684664 -0.0027706557884812355
-4.695540701504797e-5 0.00046331199700944126 -0.0026915213093161583
-2.8520251362351697e-5 0.000490521255414933 -0.0026095707435160875
-1.2950749805895612e-5 0.0005072727799415588 -0.0025294639635831118
-1.2625629324247711e-6 0.0005014123162254691 -0.002453344641253352
6.37255334368092e-6 0.00047415072913281625 -0.002380998805165291
1.0352104254707228e-5 0.00043204534449614584 -0.0023112702183425426
1.1422682291595265e-5 0.00038216161192394793 -0.0022429132368415594
1.050324772222666e-5 0.0003309756866656244 -0.002174785826355219
8.547682227799669e-6 0.0002841072855517268 -0.002105897292494774
6.444628070312319e-6 0.00024608278181403875 -0.0020354490261524916
4.885740509052994e-6 0.00021954576368443668 -0.0019629753660410643
4.214472937746905e-6 0.00020414758182596418 -0.0018885377794504166
4.422250640345737e-6 0.00019672486814670265 -0.0018126937793567777
5.273810074868379e-6 0.00019261270062997937 -0.0017362659564241767
6.425153969757957e-6 0.0001868227554950863 -0.00166013406123966
7.509945589845301e-6 0.000174870845512487 -0.0015850886702537537
8.1992238847306e-6 0.00015331564645748585 -0.0015117366565391421
8.239160706580151e-6 0.00012048135977238417 -0.0014403733657673001
7.471068784070667e-6 7.858689059503376e-5 -0.0013706076424568892
5.837506250827573e-6 3.48810717696324e-5 -0.0013011613627895713
3.3778785564209097e-6 -9.021504183692741e-7 -0.0012303180992603302
2.163614567507466e-7 -2.0013503672089428e-5 -0.0011565351160243154
-3.455363639659481e-6 -1.648758552619256e-5 -0.0010787606006488204
-7.398393336188747e-6 1.4528238352795597e-5 -0.0009961387841030955
-1.1348053703841288e-5 7.898072362877429e-5 -0.0009076212299987675
-1.5035005162644666e-5 0.00018048616766463965 -0.000812570273410529
-1.8204780644737184e-5 0.00031503711943514645 -0.0007116924971342087
-2.06348231586162e-5 0.00046963646309450274 -0.0006072795949876308
-2.214833330071997e-5 0.0006242473027668893 -0.000502864713780582
-2.2624490156886168e-5 0.0007554875337518752 -0.00040257070213556295
-2.2004807760822587e-5 0.0008408535504713655 -0.0003103655471932143
-1.070886446541408e-5 0.0004347210342530161 -0.0001333740947302431

CELL_DATA 50

VECTORS liftinglineloading               float
-0.2920885980129242 -0.2190634310245514 -0.058697868138551705
-0.37451955676078796 -0.29998400807380676 -0.08038047701120377
-0.41104510426521296 -0.25520095229148865 -0.06838088482618332
0.15620361268520355 -0.11213933676481247 -0.030047645792365074
0.1347762942314148 -0.09463109076023102 -0.025356324389576912
0.02799395844340324 -0.02653053589165211 -0.007108835503458977
0.02290177159011364 0.0007947285776026547 0.00021294687758199873
-0.22032471001148227 0.0740676075220108 0.01984635554254055
-0.6516832709312439 0.22135001420974731 0.05931055545806885
-1.1188384294509888 0.3929029405117035 0.10527802258729933
-1.6641553640365603 0.6024056077003479 0.16141410171985626
-2.4093925952911377 0.8664556741714479 0.2321660965681076
-2.865741729736328 1.019235372543335 0.2731032967567444
-3.3464479446411133 1.1649008989334106 0.3121342658996582
-3.664947271347046 1.2548255920410156 0.33622950315475464
-3.9457049369812016 1.3461288213729858 0.36069411039352417
-4.100700378417969 1.3481042385101318 0.3612234592437744
-4.171569347381592 1.371400237083435 0.3674655854701996
-4.229227066040039 1.4497591257095337 0.38846176862716675
-4.606842994689941 1.5084197521209717 0.4041798412799835
-5.0337724685668945 1.592453122138977 0.4266965389251709
-5.726894378662109 1.7097165584564207 0.45811718702316284
-6.842829704284668 1.8564732074737549 0.4974405169486999
-8.037814140319824 1.9289182424545286 0.516852080821991
-9.721025466918945 2.1424672603607178 0.5740723609924316
-11.561657905578613 2.2687761783599854 0.6079167127609253
-13.329215049743652 2.361924409866333 0.6328757405281067
-15.95859146118164 2.5423266887664795 0.6812143921852112
-18.093799591064453 2.5987913608551025 0.6963440775871277
-19.61980628967285 2.555340051651001 0.6847013235092163
-21.02737045288086 2.4442126750946045 0.6549248099327087
-22.23147964477539 2.3995535373687744 0.642958402633667
-23.123443603515625 2.253857374191284 0.603919267654419
-23.82820701599121 1.9894160032272339 0.5330623984336853
-24.229598999023438 1.8844699859619143 0.5049421787261963
-24.27338409423828 1.7543867826461794 0.4700865149497986
-24.103797912597656 1.6082707643508911 0.43093484640121466
-23.32396125793457 1.5106281042099 0.4047715961933136
-22.72039222717285 1.4467343091964722 0.3876512944698334
-22.090688705444336 1.3693641424179077 0.36692002415657043
-21.684383392333984 1.255814790725708 0.3364945650100708
-20.55521011352539 1.2471063137054443 0.3341611325740814
-19.719810485839844 1.3633211851119995 0.3653008043766022
-13.802595138549806 1.3649007081985474 0.3657240569591522
-10.492790222167969 1.6182633638381958 0.4336123764514923
-8.420634269714355 1.6818561553955078 0.45065200328826904
-6.379950046539307 1.6887812614440916 0.4525075554847717
-4.662656307220459 1.6873502731323242 0.4521241486072541
-3.018132209777832 1.6687155961990356 0.4471309781074524
-1.5661543607711792 1.6420609951019285 0.43998891115188604