# vtk DataFile Version 4.0
 
ASCII
DATASET UNSTRUCTURED_GRID
POINTS 51 float
0.0034458015579730272 0.007221319712698459 0.0011016827775165439
0.00369006278924644 0.009680368937551975 0.004606707487255335
0.0038282745517790313 0.012544632889330387 0.007510610390454531
0.0037079283501952887 0.015581364743411541 0.01009076926857233
0.003376203589141369 0.018731243908405304 0.012417878955602646
0.0030025020241737366 0.02183186262845993 0.014685492031276224
0.002778564812615514 0.024641769006848335 0.017181357368826866
0.0027836053632199764 0.027290862053632736 0.01975066401064396
0.0029529223684221506 0.029992958530783653 0.022138601168990135
0.003183003049343825 0.03257155790925026 0.0245555117726326
0.0033991164527833466 0.035086847841739655 0.026929669082164764
0.0035584971774369474 0.03762121871113777 0.02916287630796433
0.0036438601091504097 0.04012025520205498 0.0313199907541275
0.003657505614683032 0.04252646863460541 0.03346952423453331
0.003614672925323248 0.04484421759843826 0.03560627996921539
0.0035364592913538218 0.047109685838222504 0.03768713399767876
0.003444118425250053 0.049356792122125626 0.03967166692018509
0.0033548057544976473 0.05159389227628708 0.0415499210357666
0.0032793087884783745 0.05379917845129967 0.043347883969545364
0.0032226084731519227 0.05594073608517647 0.045103587210178375
0.003185397945344448 0.05799771472811699 0.04684188589453697
0.0031655679922550917 0.05997012555599212 0.04856276512145996
0.0031594964675605297 0.06187160313129425 0.05024997144937515
0.0031630429439246655 0.0637180283665657 0.05188458412885666
0.003172241384163499 0.06552146375179291 0.05345222353935242
0.0031837469432502985 0.06728921830654144 0.05494417622685433
0.003195086726918816 0.06902413815259933 0.05635705962777138
0.0032047536224126816 0.07072508335113525 0.05769222974777221
0.0032121820840984583 0.07238755375146866 0.05895504355430603
0.003217642894014716 0.07400450110435486 0.06015390530228615
0.0032219537533819675 0.07556798309087753 0.06129828467965127
0.0032260718289762735 0.07707139849662781 0.06239603832364082
0.003230798291042447 0.07851093262434006 0.06345171481370926
0.0032366192899644375 0.07988608628511429 0.06446591764688492
0.0032436484470963474 0.08119954913854599 0.06543543934822083
0.003251639194786548 0.08245667070150375 0.06635389477014542
0.0032600469421595335 0.08366464078426361 0.06721272319555283
0.003268117550760508 0.08483099192380905 0.06800294667482376
0.0032749890815466647 0.0859600156545639 0.06871944665908813
0.0032797926105558872 0.08704978227615356 0.0693645253777504
0.003281744895502925 0.0880918875336647 0.06994820386171341
0.0032802252098917965 0.08907297998666763 0.0704863965511322
0.0032748340163379903 0.08997684717178345 0.0709984079003334
0.0032654285896569495 0.09078381210565567 0.07150769978761673
0.003252137918025255 0.0914699137210846 0.07204283028841019
0.0032353585120290518 0.0920107364654541 0.07263287901878357
0.0032157283276319504 0.09238756448030472 0.07330018281936646
0.0031940888147801156 0.09259293973445892 0.07405359297990799
0.003171431832015514 0.09263429790735245 0.07488427311182022
0.003148839809000492 0.09253472834825516 0.07576470822095871
0.00312742218375206 0.09233101457357407 0.07665103673934937

CELLS 50 150
2 0 1
2 1 2
2 2 3
2 3 4
2 4 5
2 5 6
2 6 7
2 7 8
2 8 9
2 9 10
2 10 11
2 11 12
2 12 13
2 13 14
2 14 15
2 15 16
2 16 17
2 17 18
2 18 19
2 19 20
2 20 21
2 21 22
2 22 23
2 23 24
2 24 25
2 25 26
2 26 27
2 27 28
2 28 29
2 29 30
2 30 31
2 31 32
2 32 33
2 33 34
2 34 35
2 35 36
2 36 37
2 37 38
2 38 39
2 39 40
2 40 41
2 41 42
2 42 43
2 43 44
2 44 45
2 45 46
2 46 47
2 47 48
2 48 49
2 49 50

CELL_TYPES 50
4
4
4
4
4
4
4
4
4
4
4
4
4
4
4
4
4
4
4
4
4
4
4
4
4
4
4
4
4
4
4
4
4
4
4
4
4
4
4
4
4
4
4
4
4
4
4
4
4
4

POINT_DATA 51

SCALARS zone float
LOOKUP_TABLE default
1.0
1.0
1.0
1.0
1.0
1.0
1.0
1.0
1.0
1.0
1.0
1.0
1.0
1.0
1.0
1.0
1.0
1.0
1.0
1.0
1.0
1.0
1.0
1.0
1.0
1.0
1.0
1.0
1.0
1.0
1.0
1.0
1.0
1.0
1.0
1.0
1.0
1.0
1.0
1.0
1.0
1.0
1.0
1.0
1.0
1.0
1.0
1.0
1.0
1.0
1.0

VECTORS normals float
0.00012213067384436727 0.001229524496011436 0.0017525124130770564
0.00019123655511066318 0.0026616565883159637 0.0032044639810919766
8.932776836445555e-6 0.0029504981357604265 0.002742030890658498
-0.0002260355104226619 0.003093305742368102 0.0024536342825740576
-0.0003527131921146065 0.0031252489425241947 0.002297361148521304
-0.00029881938826292753 0.0029552618507295847 0.002381738740950823
-0.0001094483450287953 0.0027294999454170465 0.002532586455345154
8.717876335140318e-5 0.00267559546045959 0.002478622365742922
0.00019969894492533058 0.002640348393470049 0.002402423182502389
0.0002230970421805978 0.002546943724155426 0.0023955334909260273
0.0001877470058389008 0.0025248301681131124 0.002303682267665863
0.00012237193004693836 0.0025167041458189487 0.0021951615344733
4.9504207709105685e-5 0.0024526247289031744 0.002153323497623205
-1.4593665582651738e-5 0.0023619807325303555 0.0021431436762213707
-6.0523194406414405e-5 0.0022916076704859734 0.0021088060457259417
-8.52772718644701e-5 0.0022562879603356123 0.002032693475484848
-9.082671022042632e-5 0.0022421039175242186 0.0019313923548907042
-8.240483293775469e-5 0.0022211922332644463 0.0018381091067567468
-6.609866250073537e-5 0.002173422137275338 0.001776834134943783
-4.695540701504797e-5 0.0020992697682231665 0.0017470006132498384
-2.8520251362351697e-5 0.0020146938040852547 0.0017295891884714363
-1.2950749805895612e-5 0.0019369437359273434 0.0017040431266650558
-1.2625629324247711e-6 0.0018739525694400074 0.0016609081067144873
6.37255334368092e-6 0.0018249299610033633 0.0016011259285733104
1.0352104254707228e-5 0.0017855960177257657 0.0015297973295673728
1.1422682291595265e-5 0.0017513390630483627 0.001452418277040124
1.050324772222666e-5 0.0017179319402202962 0.001374026294797659
8.547682227799669e-6 0.0016817068681120872 0.0012989926617592573
6.444628070312319e-6 0.0016397092258557677 0.0012308384757488966
4.885740509052994e-6 0.0015902137383818626 0.001171619980596006
4.214472937746905e-6 0.0015334478812292218 0.0011210658121854067
4.422250640345737e-6 0.0014714763965457678 0.0010767156491056085
5.273810074868379e-6 0.001407344127073884 0.0010349404765293002
6.425153969757957e-6 0.0013443069765344262 0.000991860288195312
7.509945589845301e-6 0.0012852916261181235 0.0009439869318157433
8.1992238847306e-6 0.0012325445422902703 0.0008886435534805059
8.239160706580151e-6 0.001187159214168787 0.0008245265926234425
7.471068784070667e-6 0.0011476876679807901 0.0007533620810136199
5.837506250827573e-6 0.001109398202970624 0.000680788594763726
3.3778785564209097e-6 0.001065937802195549 0.0006143777281977236
2.163614567507466e-7 0.0010115954792127013 0.0005609353538602591
-3.455363639659481e-6 0.0009424778399989008 0.0005251016118563712
-7.398393336188747e-6 0.0008554173982702196 0.0005106512107886374
-1.1348053703841288e-5 0.0007465326925739646 0.000522209913469851
-1.5035005162644666e-5 0.0006134634022600949 0.0005625907215289772
-1.8204780644737184e-5 0.0004588252049870789 0.000628676381893456
-2.06348231586162e-5 0.0002911013434641063 0.0007103569223545492
-2.214833330071997e-5 0.0001233699731528759 0.0007920463685877621
-2.2624490156886168e-5 -2.9107308364473283e-5 0.0008555567474104464
-2.2004807760822587e-5 -0.00015164232172537595 0.0008833833271637559
-1.070886446541408e-5 -0.00010185516293859109 0.00044316650019027293

CELL_DATA 50

VECTORS liftinglineloading               float
-0.32333904504776 -0.5901350975036621 0.5901350975036621
-0.6674644947052002 -1.4854203462600708 1.4854203462600708
-1.718794584274292 -2.6976916790008545 2.6976916790008545
2.3705477714538574 -0.21296676993370056 0.21296676993370056
7.271359920501709 -0.4916355609893799 0.4916355609893799
11.293130874633789 -0.6521205902099609 0.6521205902099609
8.301844596862793 -0.35344910621643066 0.35344910621643066
2.5343823432922363 -0.2755163908004761 0.2755163908004761
-2.756150484085083 -1.1419732570648193 1.1419732570648193
-6.593581199645995 -1.7390533685684202 1.7390533685684202
-8.355055809020996 -1.7837417125701904 1.7837417125701904
-7.7719621658325195 -1.464247465133667 1.464247465133667
-4.215428829193115 -1.0717720985412598 1.0717720985412598
-1.4530035257339478 -0.49318921566009527 0.49318921566009527
-0.1494722217321396 -0.22078472375869748 0.22078472375869748
0.020582355558872223 -0.20395727455615995 0.20395727455615995
-0.7052125930786133 -0.39230045676231384 0.39230045676231384
-1.462464690208435 -0.5275022387504578 0.5275022387504578
-4.018604755401611 -0.9469048380851744 0.9469048380851744
-6.9402551651000985 -1.26478111743927 1.26478111743927
-9.175347328186035 -1.473515510559082 1.473515510559082
-10.601288795471191 -1.5841808319091797 1.5841808319091797
-11.412701606750488 -1.6514787673950195 1.6514787673950195
-10.863369941711426 -1.5527608394622803 1.5527608394622803
-10.920133590698242 -1.6059906482696533 1.6059906482696533
-10.923937797546387 -1.5949006080627441 1.5949006080627441
-10.72993278503418 -1.5725979804992676 1.5725979804992676
-11.161604881286621 -1.6307556629180908 1.6307556629180908
-12.00777816772461 -1.7005146741867065 1.7005146741867065
-11.39156436920166 -1.6414207220077512 1.6414207220077512
-11.72060775756836 -1.650769591331482 1.650769591331482
-11.939216613769531 -1.6081262826919556 1.6081262826919556
-12.788147926330566 -1.5415728092193604 1.5415728092193604
-12.961236000061035 -1.5264073610305786 1.5264073610305786
-12.865927696228027 -1.4842513799667358 1.4842513799667358
-12.758504867553711 -1.42171311378479 1.42171311378479
-12.519912719726562 -1.2776671648025513 1.2776671648025513
-12.534164428710938 -1.2205967903137207 1.2205967903137207
-12.038870811462402 -1.159485101699829 1.159485101699829
-11.644035339355469 -1.0857715606689453 1.0857715606689453
-11.189406394958496 -1.0347404479980469 1.0347404479980469
-9.952524185180664 -0.9811913371086121 0.9811913371086121
-8.282709121704102 -0.9574412703514099 0.9574412703514099
-7.048821926116943 -0.9214427471160888 0.9214427471160888
-5.9184136390686035 -0.9473607540130616 0.9473607540130616
-4.82794713973999 -0.9611101150512696 0.9611101150512696
-3.8064424991607666 -0.928131639957428 0.928131639957428
-2.8668651580810547 -0.9210278391838074 0.9210278391838074
-1.9384090900421143 -0.8918863534927367 0.8918863534927367
-1.0123056173324585 -0.8528100848197938 0.8528100848197938