# vtk DataFile Version 4.0
 
ASCII
DATASET UNSTRUCTURED_GRID
POINTS 51 float
0.0034458015579730272 -0.0073029170744121075 0.00016902326024137437
0.00369006278924644 -0.010333248414099216 -0.002855743048712611
0.0038282745517790313 -0.013658255338668823 -0.00521815475076437
0.0037079283501952887 -0.01709689199924469 -0.0072317924350500115
0.003376203589141369 -0.020603017881512642 -0.00897657684981823
0.0030025020241737366 -0.02405029721558094 -0.010671323165297508
0.002778564812615514 -0.02725091576576233 -0.012641334906220436
0.0027836053632199764 -0.03030592016875744 -0.014711598865687847
0.0029529223684221506 -0.0333816260099411 -0.016594043001532555
0.003183003049343825 -0.03634074330329895 -0.018526466563344002
0.0033991164527833466 -0.03923008590936661 -0.020427778363227844
0.0035584971774369474 -0.04211374744772911 -0.022186970338225365
0.0036438601091504097 -0.04494939744472504 -0.02387736178934574
0.003657505614683032 -0.04769231751561165 -0.025576401501893997
0.003614672925323248 -0.05034589767456055 -0.027278222143650055
0.0035364592913538218 -0.0529382862150669 -0.028934072703123093
0.003444118425250053 -0.055495865643024445 -0.030498247593641278
0.0033548057544976473 -0.05802513286471367 -0.031959496438503265
0.0032793087884783745 -0.06050912663340568 -0.03334720432758331
0.0032226084731519227 -0.06292302906513214 -0.034704357385635376
0.003185397945344448 -0.06525060534477234 -0.03605905547738075
0.0031655679922550917 -0.06749188154935837 -0.03741128742694855
0.0031594964675605297 -0.06965745240449905 -0.03874266892671585
0.0031630429439246655 -0.0717596709728241 -0.04003182053565979
0.003172241384163499 -0.07380792498588562 -0.04126248136162758
0.0031837469432502985 -0.07580789923667908 -0.042424801737070084
0.003195086726918816 -0.07776181399822235 -0.043514952063560486
0.0032047536224126816 -0.07966876029968262 -0.04453447461128235
0.0032121820840984583 -0.08152525871992111 -0.045489419251680374
0.003217642894014716 -0.0833258256316185 -0.04638928547501564
0.0032219537533819675 -0.08506426960229874 -0.047244783490896225
0.0032260718289762735 -0.08673547208309174 -0.04806479439139366
0.003230798291042447 -0.08833645284175873 -0.048854462802410126
0.0032366192899644375 -0.08986682444810867 -0.04961446300148964
0.0032436484470963474 -0.0913286879658699 -0.0503411702811718
0.003251639194786548 -0.0927262008190155 -0.05102737993001938
0.0032600469421595335 -0.09406495094299316 -0.051663398742675774
0.003268117550760508 -0.09535080194473267 -0.052239082753658295
0.0032749890815466647 -0.09658709168434143 -0.052748646587133415
0.0032797926105558872 -0.09777233004570007 -0.05319468304514884
0.003281744895502925 -0.0988999530673027 -0.05358853563666344
0.0032802252098917965 -0.0999595895409584 -0.05394818633794785
0.0032748340163379903 -0.10093864053487778 -0.05429546535015106
0.0032654285896569495 -0.10182178020477295 -0.05465688928961754
0.003252137918025255 -0.10259038209915161 -0.05506475269794464
0.0032353585120290518 -0.1032254546880722 -0.0555519238114357
0.0032157283276319504 -0.10371243208646773 -0.05614365264773369
0.0031940888147801156 -0.10404551774263383 -0.05684995651245117
0.003171431832015514 -0.10423049330711365 -0.05766083300113678
0.003148839809000492 -0.10428532212972641 -0.05854518339037895
0.00312742218375206 -0.10423861443996428 -0.059453424066305154

CELLS 50 150
2 0 1
2 1 2
2 2 3
2 3 4
2 4 5
2 5 6
2 6 7
2 7 8
2 8 9
2 9 10
2 10 11
2 11 12
2 12 13
2 13 14
2 14 15
2 15 16
2 16 17
2 17 18
2 18 19
2 19 20
2 20 21
2 21 22
2 22 23
2 23 24
2 24 25
2 25 26
2 26 27
2 27 28
2 28 29
2 29 30
2 30 31
2 31 32
2 32 33
2 33 34
2 34 35
2 35 36
2 36 37
2 37 38
2 38 39
2 39 40
2 40 41
2 41 42
2 42 43
2 43 44
2 44 45
2 45 46
2 46 47
2 47 48
2 48 49
2 49 50

CELL_TYPES 50
4
4
4
4
4
4
4
4
4
4
4
4
4
4
4
4
4
4
4
4
4
4
4
4
4
4
4
4
4
4
4
4
4
4
4
4
4
4
4
4
4
4
4
4
4
4
4
4
4
4

POINT_DATA 51

SCALARS zone float
LOOKUP_TABLE default
1.0
1.0
1.0
1.0
1.0
1.0
1.0
1.0
1.0
1.0
1.0
1.0
1.0
1.0
1.0
1.0
1.0
1.0
1.0
1.0
1.0
1.0
1.0
1.0
1.0
1.0
1.0
1.0
1.0
1.0
1.0
1.0
1.0
1.0
1.0
1.0
1.0
1.0
1.0
1.0
1.0
1.0
1.0
1.0
1.0
1.0
1.0
1.0
1.0
1.0
1.0

VECTORS normals float
0.00012213067384436727 -0.0015151657862588763 -0.001512383110821247
0.00019123655511066318 -0.003177669364959002 -0.0026935890782624483
8.932776836445555e-6 -0.0033818220254033804 -0.0021880248095840216
-0.0002260355104226619 -0.003472380805760622 -0.0018792111659422517
-0.0003527131921146065 -0.003476701909676194 -0.001719765132293105
-0.00029881938826292753 -0.003323949407786131 -0.0018323789117857814
-0.0001094483450287953 -0.003127811709418893 -0.002020138083025813
8.717876335140318e-5 -0.0030653553549200296 -0.001976354280486703
0.00019969894492533058 -0.0030174118001013994 -0.0019074332667514682
0.0002230970421805978 -0.0029242299497127533 -0.0019168677972629666
0.0001877470058389008 -0.0028865025378763676 -0.001830252003856003
0.00012237193004693836 -0.002859655534848571 -0.0017247908981516957
4.9504207709105685e-5 -0.0027892845682799816 -0.0016947159310802815
-1.4593665582651738e-5 -0.0026982498820871115 -0.0017004309920594098
-6.0523194406414405e-5 -0.002622983418405056 -0.0016788351349532604
-8.52772718644701e-5 -0.002574983285740018 -0.0016100120265036821
-9.082671022042632e-5 -0.0025434240233153105 -0.0015127129154279828
-8.240483293775469e-5 -0.002506631426513195 -0.0014244781341403723
-6.609866250073537e-5 -0.002448946936056018 -0.001372429309412837
-4.695540701504797e-5 -0.002370740519836545 -0.0013559253420680761
-2.8520251362351697e-5 -0.0022844262421131134 -0.0013534649042412639
-1.2950749805895612e-5 -0.002203421201556921 -0.001341808121651411
-1.2625629324247711e-6 -0.0021338968072086573 -0.0013102666707709432
6.37255334368092e-6 -0.0020752379205077887 -0.001259905518963933
1.0352104254707228e-5 -0.0020241152960807085 -0.0011964908335357904
1.1422682291595265e-5 -0.0019769419450312853 -0.0011262359330430627
1.050324772222666e-5 -0.001930429833009839 -0.0010548359714448452
8.547682227799669e-6 -0.0018817256204783916 -0.0009872327791526914
6.444628070312319e-6 -0.0018285312689840794 -0.0009274067706428467
4.885740509052994e-6 -0.0017695045098662376 -0.0008776827016845345
4.214472937746905e-6 -0.0017048224108293653 -0.0008377539343200625
4.422250640345737e-6 -0.0016360910376533866 -0.0008048386662267148
5.273810074868379e-6 -0.0015656789764761925 -0.0007748347125016153
6.425153969757957e-6 -0.0014961186097934842 -0.0007433552527800202
7.509945589845301e-6 -0.001429686788469553 -0.0007064571254886687
8.1992238847306e-6 -0.0013681306736543775 -0.0006611139397136867
8.239160706580151e-6 -0.0013123011449351907 -0.0006058521685190499
7.471068784070667e-6 -0.0012610716512426734 -0.0005426229326985776
5.837506250827573e-6 -0.001210761722177267 -0.0004778008733410388
3.3778785564209097e-6 -0.0011564294109120965 -0.00041994583443738526
2.163614567507466e-7 -0.0010936325415968895 -0.0003767517628148198
-3.455363639659481e-6 -0.0010193424532189965 -0.000353464565705508
-7.398393336188747e-6 -0.0009310953319072724 -0.0003543516213539988
-1.1348053703841288e-5 -0.0008258720044977963 -0.000384642364224419
-1.5035005162644666e-5 -0.000701836368534714 -0.00044751694076694554
-1.8204780644737184e-5 -0.0005610231310129166 -0.0005394512554630637
-2.06348231586162e-5 -0.0004100310325156898 -0.0006490157684311271
-2.214833330071997e-5 -0.00025903311325237155 -0.0007585904677398503
-2.2624490156886168e-5 -0.00011990076745860279 -0.0008476133225485681
-2.2004807760822587e-5 -4.059361344843637e-6 -0.000896295125130564
-1.070886446541408e-5 2.3352693460765295e-5 -0.00045412077452056115

CELL_DATA 50

VECTORS liftinglineloading               float
-0.03273843228816986 0.17622123658657074 -0.2516700029373169
-0.24512559175491336 0.6878561973571777 -0.9823604226112366
-1.1859910488128662 1.544559121131897 -2.2058591842651367
2.7477166652679443 0.10763517022132874 -0.1537189483642578
8.8237886428833 0.29138311743736267 -0.41613820195198054
15.52024173736572 0.5070918202400208 -0.7242021560668945
12.578083992004395 0.46721068024635315 -0.6672460436820984
2.451508045196533 0.9761420488357544 -1.3940752744674683
-9.844903945922852 3.198702096939087 -4.568220138549805
-22.371185302734375 4.818140506744385 -6.881018161773681
-31.988883972167965 5.531656265258789 -7.900023937225342
-35.97104263305664 5.5160136222839355 -7.877683639526367
-38.69746017456055 5.4366278648376465 -7.764308929443359
-40.04822540283203 5.403625011444092 -7.71717643737793
-39.59944534301758 5.283969879150391 -7.546291351318359
-37.6280632019043 4.586645603179932 -6.550408840179443
-36.28508377075195 3.43472170829773 -4.9052910804748535
-34.59600830078125 2.4665253162384033 -3.522563219070434
-30.37385368347168 2.347055435180664 -3.351942777633667
-25.04143714904785 2.4482359886169434 -3.496443510055542
-16.457971572875977 2.034491539001465 -2.905555009841919
-10.882628440856934 1.6133308410644531 -2.304075241088867
-6.504086017608642 1.2604711055755615 -1.8001393079757688
-4.5333733558654785 1.108315348625183 -1.5828384160995483
-3.569862365722656 1.0629547834396362 -1.5180567502975464
-2.9995086193084717 1.0354804992675781 -1.478819489479065
-2.927104949951172 1.0366156101226807 -1.4804404973983765
-3.1328272819519043 1.0686761140823364 -1.526227593421936
-4.643955230712891 1.201532006263733 -1.7159655094146726
-4.5515570640563965 1.1913187503814697 -1.701379418373108
-6.513892650604249 1.3304299116134644 -1.9000508785247803
-7.228555679321289 1.3070114850997925 -1.8666058778762817
-8.277959823608398 1.2810529470443726 -1.8295332193374636
-8.900571823120117 1.3234251737594604 -1.8900469541549683
-9.153352737426758 1.305363655090332 -1.8642524480819702
-9.308656692504883 1.259672999382019 -1.7989994287490847
-9.250115394592285 1.1303198337554932 -1.6142640113830566
-9.783271789550781 1.0977725982666016 -1.567781686782837
-9.454263687133789 1.0407346487045288 -1.4863231182098389
-9.191895484924316 0.9726257920265199 -1.3890535831451416
-8.704984664916992 0.9328041672706603 -1.3321824073791504
-7.597618579864502 0.8848724365234374 -1.2637288570404053
-6.353959560394287 0.8489237427711488 -1.2123887538909912
-5.499526500701904 0.8200103044509887 -1.1710960865020752
-4.893180847167969 0.7994299530982971 -1.1417043209075928
-3.9187886714935303 0.799947202205658 -1.142443060874939
-3.1064600944519043 0.7653918266296387 -1.0930927991867065
-2.3397061824798584 0.7586970329284668 -1.0835316181182861
-1.6363521814346316 0.733305037021637 -1.0472681522369385
-0.8376389741897583 0.6958792209625244 -0.993818461894989