# vtk DataFile Version 4.0
 
ASCII
DATASET UNSTRUCTURED_GRID
POINTS 51 float
0.0034458015579730272 0.00046811107313260436 -0.007289858534932136
0.00369006278924644 0.003745478112250567 -0.010045032948255539
0.0038282745517790313 0.006388693582266569 -0.01315149012953043
0.0037079283501952887 0.008694365620613098 -0.016401542350649834
0.003376203589141369 0.010738089680671692 -0.01974225603044033
0.0030025020241737366 0.012726836837828161 -0.02302871085703373
0.002778564812615514 0.014968304894864561 -0.02604545280337334
0.0027836053632199764 0.01729695126414299 -0.028908396139740944
0.0029529223684221506 0.0194402989000082 -0.03180833160877228
0.003183003049343825 0.021623270586133003 -0.03458776697516441
0.0033991164527833466 0.02376917190849781 -0.03730040416121483
0.0035584971774369474 0.025772996246814728 -0.040019772946834564
0.0036438601091504097 0.027704099193215374 -0.042697302997112274
0.003657505614683032 0.02963573485612869 -0.045281704515218735
0.003614672925323248 0.031562354415655136 -0.04777686297893524
0.0035364592913538218 0.03343784436583519 -0.05021506920456886
0.003444118425250053 0.0352189764380455 -0.05262658745050431
0.0033548057544976473 0.036895107477903366 -0.05501887574791908
0.0032793087884783745 0.03849402442574501 -0.05737247318029404
0.0032226084731519227 0.04005640000104904 -0.05965889990329742
0.003185397945344448 0.04160880297422409 -0.06185955554246902
0.0031655679922550917 0.04315122961997986 -0.06397444009780884
0.0031594964675605297 0.044666290283203125 -0.06601573526859283
0.0031630429439246655 0.046133752912282944 -0.06799760460853577
0.003172241384163499 0.04753825068473816 -0.069930799305439
0.0031837469432502985 0.04887045547366142 -0.07182186841964722
0.003195086726918816 0.050126753747463226 -0.0736733227968216
0.0032047536224126816 0.05130859464406967 -0.07548416405916214
0.0032121820840984583 0.05242171138525009 -0.07725036889314651
0.003217642894014716 0.05347508564591408 -0.07896564900875092
0.0032219537533819675 0.05447884276509285 -0.08062291890382767
0.0032260718289762735 0.055441386997699744 -0.0822162926197052
0.003230798291042447 0.05636758357286453 -0.08374235779047012
0.0032366192899644375 0.05725807696580886 -0.08520067483186722
0.0032436484470963474 0.058109428733587265 -0.0865936353802681
0.003251639194786548 0.058914825320243835 -0.08792602270841599
0.0032600469421595335 0.05966510623693467 -0.08920424431562424
0.003268117550760508 0.06035066768527031 -0.09043502807617188
0.0032749890815466647 0.060966040939092636 -0.09162220358848572
0.0032797926105558872 0.06151368096470833 -0.09276404976844788
0.003281744895502925 0.06200431659817696 -0.09385306388139725
0.0032802252098917965 0.06245495006442069 -0.09487732499837875
0.0032748340163379903 0.06288623809814453 -0.09582237154245377
0.0032654285896569495 0.0633232593536377 -0.09667065739631653
0.003252137918025255 0.06379655748605728 -0.09740078449249268
0.0032353585120290518 0.06433722376823425 -0.097990982234478
0.0032157283276319504 0.06496914476156235 -0.098424531519413
0.0031940888147801156 0.06570179015398026 -0.09869479387998581
0.003171431832015514 0.06652570515871048 -0.0988083928823471
0.003148839809000492 0.06741146743297577 -0.09878593683242798
0.00312742218375206 0.06831218302249908 -0.09866024553775787

CELLS 50 150
2 0 1
2 1 2
2 2 3
2 3 4
2 4 5
2 5 6
2 6 7
2 7 8
2 8 9
2 9 10
2 10 11
2 11 12
2 12 13
2 13 14
2 14 15
2 15 16
2 16 17
2 17 18
2 18 19
2 19 20
2 20 21
2 21 22
2 22 23
2 23 24
2 24 25
2 25 26
2 26 27
2 27 28
2 28 29
2 29 30
2 30 31
2 31 32
2 32 33
2 33 34
2 34 35
2 35 36
2 36 37
2 37 38
2 38 39
2 39 40
2 40 41
2 41 42
2 42 43
2 43 44
2 44 45
2 45 46
2 46 47
2 47 48
2 48 49
2 49 50

CELL_TYPES 50
4
4
4
4
4
4
4
4
4
4
4
4
4
4
4
4
4
4
4
4
4
4
4
4
4
4
4
4
4
4
4
4
4
4
4
4
4
4
4
4
4
4
4
4
4
4
4
4
4
4

POINT_DATA 51

SCALARS zone float
LOOKUP_TABLE default
1.0
1.0
1.0
1.0
1.0
1.0
1.0
1.0
1.0
1.0
1.0
1.0
1.0
1.0
1.0
1.0
1.0
1.0
1.0
1.0
1.0
1.0
1.0
1.0
1.0
1.0
1.0
1.0
1.0
1.0
1.0
1.0
1.0
1.0
1.0
1.0
1.0
1.0
1.0
1.0
1.0
1.0
1.0
1.0
1.0
1.0
1.0
1.0
1.0
1.0
1.0

VECTORS normals float
0.00012213067384436727 0.0016386834904551506 -0.0013775872066617012
0.00019123655511066318 0.002960291225463152 -0.002930815564468503
8.932776836445555e-6 0.0024744439870119095 -0.00317825423553586
-0.0002260355104226619 0.002174698282033205 -0.0032953831832855936
-0.0003527131921146065 0.002016235375776887 -0.0033135847188532357
-0.00029881938826292753 0.00211510737426579 -0.003151598386466503
-0.0001094483450287953 0.0022850576788187027 -0.002939842641353607
8.717876335140318e-5 0.002235997002571821 -0.0028814401011914015
0.00019969894492533058 0.0021631596609950066 -0.002839685883373022
0.0002230970421805978 0.0021644369699060917 -0.0027460362762212753
0.0001877470058389008 0.0020748625975102186 -0.0027160015888512135
0.00012237193004693836 0.001967462943866849 -0.0026984482537955046
4.9504207709105685e-5 0.0019313691882416606 -0.0026309662498533726
-1.4593665582651738e-5 0.001929128309711814 -0.0025397799909114838
-6.0523194406414405e-5 0.0019010547548532486 -0.0024666818790137768
-8.52772718644701e-5 0.001828310079872608 -0.0024248629342764616
-9.082671022042632e-5 0.0017286306247115135 -0.002401903970167041
-8.240483293775469e-5 0.0016375248087570071 -0.0023729417007416487
-6.609866250073537e-5 0.0015806466108188033 -0.002320012776181102
-4.695540701504797e-5 0.00155738927423954 -0.002243542578071356
-2.8520251362351697e-5 0.0015474153915420175 -0.0021577710285782814
-1.2950749805895612e-5 0.0015287429559975863 -0.002078090328723192
-1.2625629324247711e-6 0.00149126211181283 -0.002011579228565097
6.37255334368092e-6 0.0014359800843521953 -0.001957532949745655
1.0352104254707228e-5 0.0013683510478585958 -0.001912131905555725
1.1422682291595265e-5 0.0012942521134391427 -0.0018712612800300121
1.050324772222666e-5 0.0012190700508654118 -0.0018311489839106798
8.547682227799669e-6 0.00114747928455472 -0.0017885221168398857
6.444628070312319e-6 0.0010832446860149503 -0.001740744337439537
4.885740509052994e-6 0.0010285653406754136 -0.001686275936663151
4.214472937746905e-6 0.0009831510251387954 -0.0016253199428319929
4.422250640345737e-6 0.0009443707531318069 -0.0015597189776599407
5.273810074868379e-6 0.0009083441109396517 -0.001492189709097147
6.425153969757957e-6 0.0008709218818694353 -0.0014256377471610904
7.509945589845301e-6 0.0008283742354251445 -0.0013626746367663145
8.1992238847306e-6 0.0007778386934660375 -0.0013053047005087137
8.239160706580151e-6 0.0007179212989285588 -0.001254503964446485
7.471068784070667e-6 0.0006504677585326135 -0.0012089801020920277
5.837506250827573e-6 0.0005815075128339231 -0.0011645113117992878
3.3778785564209097e-6 0.0005191372474655509 -0.0011154281673952937
2.163614567507466e-7 0.00047063446254469454 -0.001056634820997715
-3.455363639659481e-6 0.00044096107012592256 -0.0009846570901572704
-7.398393336188747e-6 0.0004341535095591098 -0.0008966684690676628
-1.1348053703841288e-5 0.00045515815145336097 -0.0007892055436968803
-1.5035005162644666e-5 0.0005069830804131925 -0.0006601620116271079
-1.8204780644737184e-5 0.0005862948601134121 -0.0005118720000609756
-2.06348231586162e-5 0.0006822826690040529 -0.00035190529888495803
-2.214833330071997e-5 0.0007782800239510834 -0.00019193190382793546
-2.2624490156886168e-5 0.000854837941005826 -4.5570137444883585e-5
-2.2004807760822587e-5 0.0008932382916100322 7.407335215248168e-5
-1.070886446541408e-5 0.0004503573873080313 6.284306437009946e-5

CELL_DATA 50

VECTORS liftinglineloading               float
-0.08711598813533783 0.03423914313316345 0.028730051591992378
-0.09997709095478058 0.08996059745550156 0.07548590749502182
-0.11532198637723924 0.1534610241651535 0.12876908481121063
0.1106216162443161 0.012351928278803825 0.010364498011767864
0.9179348945617676 -0.004850884433835745 -0.0040703751146793365
1.6051182746887207 -0.13713999092578888 -0.11507411301136017
0.5154396891593933 0.0016713221557438374 0.0014024057891219854
-1.4172401428222656 0.4885883629322052 0.40997430682182306
-4.127688884735107 0.9904503226280214 0.8310864567756653
-5.880488395690918 1.3630434274673462 1.1437292098999023
-7.095645904541016 1.649327278137207 1.383949875831604
-8.181099891662598 1.8958039283752441 1.5907683372497559
-9.244125366210938 2.132911205291748 1.7897249460220335
-9.924434661865234 2.270368814468384 1.9050655364990234
-12.367040634155273 2.5615077018737793 2.149360179901123
-12.450693130493164 2.5356833934783936 2.1276910305023193
-12.376222610473633 2.453881025314331 2.0590505599975586
-12.110329627990723 2.3984556198120117 2.012543201446533
-11.582630157470703 2.293429136276245 1.9244154691696167
-12.166387557983398 2.2660462856292725 1.901438593864441
-12.957687377929688 2.296372413635254 1.9268851280212405
-14.116250991821289 2.3387625217437744 1.962454676628113
-15.980853080749512 2.4355483055114746 2.043667793273926
-16.732444763183594 2.3239314556121826 1.9500099420547485
-19.14520835876465 2.449525833129883 2.055396318435669
-21.677467346191406 2.456467866897583 2.0612213611602783
-24.11168670654297 2.4420087337493896 2.049088716506958
-27.201658248901367 2.4028871059417725 2.0162618160247803
-28.590496063232422 2.2278904914855957 1.8694220781326294
-30.82607650756836 2.0669357776641846 1.7343649864196777
-31.526653289794922 1.8363910913467407 1.5409151315689087
-32.607017517089844 1.7643281221389773 1.4804471731185913
-33.33051300048828 1.6767076253890991 1.4069247245788574
-34.01839828491211 1.3693593740463257 1.149029016494751
-35.16392517089844 1.2681307792663574 1.0640881061553955
-38.38505935668945 1.1546941995620728 0.9689034819602966
-34.91078186035156 1.1038073301315308 0.9262043237686157
-30.108005523681644 1.0697076320648193 0.8975912332534791
-27.00081062316894 1.0572631359100342 0.8871490955352784
-24.135835647583008 1.0505638122558594 0.8815277218818665
-21.635658264160156 0.9756882190704345 0.8186996579170227
-18.36005973815918 1.0657086372375488 0.8942357301712035
-15.011734008789064 1.2578246593475342 1.0554401874542236
-12.084342956542969 1.3053478002548218 1.0953168869018555
-9.537779808044434 1.5453097820281982 1.2966688871383667
-7.516092777252196 1.6062653064727783 1.3478165864944458
-5.726180553436279 1.6313172578811646 1.3688377141952515
-4.197265625 1.6297842264175415 1.367551326751709
-2.815028429031372 1.6178104877471924 1.3575042486190796
-1.4658993482589722 1.604136347770691 1.3460302352905273