# vtk DataFile Version 4.0
 
ASCII
DATASET UNSTRUCTURED_GRID
POINTS 51 float
0.0034458015579730272 0.005044424440711737 -0.005283459555357695
0.00369006278924644 0.0093260258436203 -0.005287394858896732
0.0038282745517790313 0.013347637839615347 -0.005968052428215742
0.0037079283501952887 0.01720297895371914 -0.0069756791926920405
0.003376203589141369 0.020915931090712547 -0.008221134543418884
0.0030025020241737366 0.024551892653107643 -0.009460363537073135
0.002778564812615514 0.028208080679178238 -0.010330533608794212
0.0027836053632199764 0.031832192093133926 -0.01102684997022152
0.0029529223684221506 0.035338133573532104 -0.011870614252984524
0.003183003049343825 0.03879697620868683 -0.012596596963703632
0.0033991164527833466 0.04218447953462601 -0.013295238837599754
0.0035584971774369474 0.045467473566532135 -0.014090360142290592
0.0036438601091504097 0.04866786673665047 -0.014900180511176586
0.003657505614683032 0.05180880799889564 -0.015638314187526703
0.003614672925323248 0.054888542741537094 -0.01631130836904049
0.0035364592913538218 0.05789249762892723 -0.01697354204952717
0.003444118425250053 0.060807019472122185 -0.017675984650850296
0.0033548057544976473 0.06362874060869217 -0.01843118667602539
0.0032793087884783745 0.06636644899845123 -0.01920638047158718
0.0032226084731519227 0.06903298199176788 -0.019953612238168716
0.003185397945344448 0.07163675129413605 -0.020641546696424484
0.0031655679922550917 0.07417774200439453 -0.02127019129693508
0.0031594964675605297 0.0766504630446434 -0.02186005190014839
0.0031630429439246655 0.0790485218167305 -0.022434979677200317
0.003172241384163499 0.08136706799268723 -0.023013105615973473
0.0031837469432502985 0.0836031436920166 -0.02360541746020317
0.003195086726918816 0.08575562387704849 -0.0242161862552166
0.0032047536224126816 0.08782494813203812 -0.024843694642186165
0.0032121820840984583 0.08981294184923172 -0.02548118866980076
0.003217642894014716 0.09172243624925613 -0.026118077337741855
0.0032219537533819675 0.09355662763118744 -0.026742415502667424
0.0032260718289762735 0.09531818330287933 -0.02734429761767387
0.003230798291042447 0.09700862318277359 -0.027917984873056412
0.0032366192899644375 0.09862817078828812 -0.028462719172239307
0.0032436484470963474 0.10017572343349457 -0.028982551768422127
0.003251639194786548 0.10164912790060042 -0.029485519975423813
0.0032600469421595335 0.10304550826549531 -0.02998242527246475
0.003268117550760508 0.10436180979013443 -0.03048459067940712
0.0032749890815466647 0.10559631139039995 -0.030998464673757557
0.0032797926105558872 0.10674979537725447 -0.03152115270495415
0.003281744895502925 0.10782564431428909 -0.03204001113772392
0.0032802252098917965 0.10882923752069472 -0.03253497555851936
0.0032748340163379903 0.1097670868039131 -0.03298170492053032
0.0032654285896569495 0.11064713448286057 -0.033350616693496704
0.003252137918025255 0.1114790141582489 -0.03360569477081299
0.0032353585120290518 0.11227256059646606 -0.03371027857065201
0.0032157283276319504 0.11303532123565674 -0.03363620489835739
0.0031940888147801156 0.11377028375864029 -0.03337230160832405
0.003171431832015514 0.11447446048259735 -0.03292972221970558
0.003148839809000492 0.11513855308294295 -0.03234316036105156
0.00312742218375206 0.11574774980545044 -0.031667910516262054

CELLS 50 150
2 0 1
2 1 2
2 2 3
2 3 4
2 4 5
2 5 6
2 6 7
2 7 8
2 8 9
2 9 10
2 10 11
2 11 12
2 12 13
2 13 14
2 14 15
2 15 16
2 16 17
2 17 18
2 18 19
2 19 20
2 20 21
2 21 22
2 22 23
2 23 24
2 24 25
2 25 26
2 26 27
2 27 28
2 28 29
2 29 30
2 30 31
2 31 32
2 32 33
2 33 34
2 34 35
2 35 36
2 36 37
2 37 38
2 38 39
2 39 40
2 40 41
2 41 42
2 42 43
2 43 44
2 44 45
2 45 46
2 46 47
2 47 48
2 48 49
2 49 50

CELL_TYPES 50
4
4
4
4
4
4
4
4
4
4
4
4
4
4
4
4
4
4
4
4
4
4
4
4
4
4
4
4
4
4
4
4
4
4
4
4
4
4
4
4
4
4
4
4
4
4
4
4
4
4

POINT_DATA 51

SCALARS zone float
LOOKUP_TABLE default
1.0
1.0
1.0
1.0
1.0
1.0
1.0
1.0
1.0
1.0
1.0
1.0
1.0
1.0
1.0
1.0
1.0
1.0
1.0
1.0
1.0
1.0
1.0
1.0
1.0
1.0
1.0
1.0
1.0
1.0
1.0
1.0
1.0
1.0
1.0
1.0
1.0
1.0
1.0
1.0
1.0
1.0
1.0
1.0
1.0
1.0
1.0
1.0
1.0
1.0
1.0

VECTORS normals float
0.00012213067384436727 0.002140800468623638 -1.96763789972465e-6
0.00019123655511066318 0.0041516064666211605 -0.0003422964655328542
8.932776836445555e-6 0.003938476555049419 -0.0008441421668976546
-0.0002260355104226619 0.003784146858379245 -0.0011265409411862493
-0.0003527131921146065 0.0036744570825248952 -0.0012423419393599033
-0.00029881938826292753 0.0036460747942328453 -0.0010546996491029859
-0.0001094483450287953 0.003640150185674429 -0.0007832434494048357
8.717876335140318e-5 0.0035650269128382206 -0.0007700400892645121
0.00019969894492533058 0.00348239135928452 -0.0007848733803257346
0.0002230970421805978 0.0034231729805469513 -0.0007123126415535808
0.0001877470058389008 0.0033352491445839405 -0.0007468818803317845
0.00012237193004693836 0.0032416931353509426 -0.0008024705457501113
4.9504207709105685e-5 0.0031706669833511114 -0.0007739768479950726
-1.4593665582651738e-5 0.003110337071120739 -0.0007055645692162216
-6.0523194406414405e-5 0.0030418450478464365 -0.0006676135817542672
-8.52772718644701e-5 0.002959238598123193 -0.0006823377916589379
-9.082671022042632e-5 0.0028681219555437565 -0.0007288228371180594
-8.240483293775469e-5 0.002779714297503233 -0.0007651980267837644
-6.609866250073537e-5 0.0027021211571991444 -0.0007612129556946456
-4.695540701504797e-5 0.00263515068218112 -0.0007175827049650252
-2.8520251362351697e-5 0.0025723774451762438 -0.0006582890055142343
-1.2950749805895612e-5 0.0025068556424230337 -0.000609252427238971
-1.2625629324247711e-6 0.002435391303151846 -0.0005823943647556007
6.37255334368092e-6 0.0023583024740219116 -0.0005765270325355232
1.0352104254707228e-5 0.002277312334626913 -0.0005852189497090876
1.1422682291595265e-5 0.002194278175011277 -0.0006015400285832584
1.050324772222666e-5 0.00211090175434947 -0.0006191383581608534
8.547682227799669e-6 0.0020286599174141884 -0.0006325019639916718
6.444628070312319e-6 0.001948742428794503 -0.0006371912313625216
4.885740509052994e-6 0.0018718440551310775 -0.0006306132418103516
4.214472937746905e-6 0.0017978729447349906 -0.0006131100235506892
4.422250640345737e-6 0.0017259980086237192 -0.000587784219533205
5.273810074868379e-6 0.0016549930442124605 -0.0005592113011516631
6.425153969757957e-6 0.0015835472149774432 -0.0005322840879671276
7.509945589845301e-6 0.0015104818157851696 -0.0005114006344228983
8.1992238847306e-6 0.0014348926488310099 -0.0004999363445676863
8.239160706580151e-6 0.0013563391985371709 -0.0004995348863303661
7.471068784070667e-6 0.0012754047056660056 -0.0005080199334770441
5.837506250827573e-6 0.0011939940741285682 -0.0005182815948501229
3.3778785564209097e-6 0.0011146656470373273 -0.0005207725334912539
2.163614567507466e-7 0.0010397187434136868 -0.0005069112521596253
-3.455363639659481e-6 0.0009707211283966898 -0.000470846745884046
-7.398393336188747e-6 0.0009089482482522726 -0.0004078194033354521
-1.1348053703841288e-5 0.0008559629204683006 -0.00031199646764434874
-1.5035005162644666e-5 0.0008127155015245081 -0.00017983101133722812
-1.8204780644737184e-5 0.0007781528984196484 -1.5253642231982667e-5
-2.06348231586162e-5 0.000748859194573015 0.0001689877244643867
-2.214833330071997e-5 0.000719568517524749 0.0003532403788994998
-2.2624490156886168e-5 0.000684135768096894 0.0005145705072209239
-2.2004807760822587e-5 0.0006366467569023371 0.0006309059681370854
-1.070886446541408e-5 0.0003045990306418389 0.0003376247186679393

CELL_DATA 50

VECTORS liftinglineloading               float
-0.03509502857923508 0.022704321891069412 0.1287626028060913
-0.11137840896844865 0.08308038115501404 0.47117224335670477
-0.4525482356548309 0.17759178578853607 1.0071730613708496
1.39951753616333 0.0034540672786533833 0.01958899013698101
4.597903251647949 -0.018718892708420753 -0.10616011172533037
8.28774356842041 -0.08429799228906631 -0.47807767987251276
6.177630424499512 -0.09592878073453903 -0.5440391302108765
1.0856010913848877 0.050586119294166565 0.28688812255859375
-4.340145111083984 0.35479944944381714 2.0121676921844482
-9.524823188781738 0.5589367747306824 3.1698880195617676
-14.54287910461426 0.6479705572128296 3.6748235225677486
-16.318675994873047 0.6986171007156372 3.96205472946167
-15.822463035583494 0.7163872122764587 4.062833786010742
-14.73599910736084 0.7132507562637329 4.045045852661133
-12.755861282348633 0.655705451965332 3.7186903953552246
-11.027374267578125 0.5858809947967529 3.3226964473724365
-9.420327186584473 0.4975394904613495 2.8216865062713623
-8.04970645904541 0.44181683659553533 2.5056679248809814
-8.338176727294922 0.4567343294620514 2.590269088745117
-8.538054466247559 0.44323024153709406 2.513683557510376
-9.540177345275879 0.46242588758468633 2.6225476264953613
-11.205511093139648 0.492155134677887 2.7911505699157715
-13.431004524230957 0.5271361470222473 2.989537477493286
-15.270913124084473 0.5271108150482178 2.989393949508667
-18.137880325317383 0.5710680484771729 3.238687753677368
-21.468032836914062 0.5858576893806458 3.3225641250610347
-23.895465850830078 0.5856640934944153 3.3214659690856934
-27.16351318359375 0.589262843132019 3.341875553131103
-28.484960556030273 0.5577035546302795 3.1628940105438232
-30.473079681396488 0.5306918621063232 3.0097031593322754
-30.894737243652347 0.48418843746185297 2.74596905708313
-31.642850875854492 0.4724753499031067 2.6795408725738525
-31.81908416748047 0.4483810365200042 2.5428953170776367
-31.75586700439453 0.37999022006988525 2.155031442642212
-31.592517852783207 0.3595210313796997 2.038945198059082
-31.16789054870605 0.33393678069114685 1.8938494920730589
-30.681129455566406 0.31171220541000366 1.767807722091675
-29.59091567993164 0.29422417283058167 1.6686280965805056
-29.376506805419922 0.2814676761627197 1.5962826013565063
-29.611860275268555 0.2674391269683838 1.5167226791381836
-30.592817306518555 0.2412373274564743 1.3681248426437378
-23.447050094604492 0.2434215247631073 1.380511999130249
-18.21830177307129 0.2735039293766022 1.5511178970336914
-14.34962272644043 0.2761377990245819 1.566055178642273
-11.077171325683594 0.3281554579734802 1.8610620498657229
-8.935644149780273 0.34028226137161255 1.929836630821228
-6.811673641204834 0.34127500653266907 1.935466647148132
-5.023349761962891 0.3394845724105835 1.9253126382827759
-3.261888980865478 0.33424267172813416 1.8955843448638916
-1.7017656564712524 0.3271634578704834 1.8554362058639529