# vtk DataFile Version 4.0
 
ASCII
DATASET UNSTRUCTURED_GRID
POINTS 51 float
0.0034458015579730272 0.0035050800070166588 -0.00640902342274785
0.00369006278924644 0.007639770396053791 -0.007520984392613172
0.0038282745517790313 0.011348182335495949 -0.009219318628311157
0.0037079283501952887 0.014811362139880657 -0.011190447025001049
0.003376203589141369 0.018075453117489815 -0.013354447670280935
0.0030025020241737366 0.021266784518957138 -0.015492506325244902
0.002778564812615514 0.024573175236582756 -0.01727931760251522
0.0027836053632199764 0.027893578633666035 -0.0188898965716362
0.0029529223684221506 0.031061677262187 -0.020612314343452454
0.003183003049343825 0.03421476110816002 -0.022208774462342262
0.0033991164527833466 0.03730601817369461 -0.023760361596941948
0.0035584971774369474 0.04027135297656059 -0.025378091260790825
0.0036438601091504097 0.043153099715709686 -0.026988640427589417
0.003657505614683032 0.04599597305059433 -0.02851455844938755
0.003614672925323248 0.04879658296704292 -0.02996171452105045
0.0035364592913538218 0.05152678489685059 -0.031378861516714096
0.003444118425250053 0.054160188883543015 -0.03281170502305031
0.0033548057544976473 0.05669030174612999 -0.034271489828825
0.0032793087884783745 0.05913408845663071 -0.03572883829474449
0.0032226084731519227 0.06151636689901351 -0.03714076057076454
0.003185397945344448 0.06385336071252823 -0.03847915679216385
0.0031655679922550917 0.06614506244659424 -0.03974403813481331
0.0031594964675605297 0.06838086247444153 -0.04095378890633583
0.0031630429439246655 0.0705484077334404 -0.04212978854775429
0.003172241384163499 0.07263831794261932 -0.043288297951221466
0.0031837469432502985 0.07464490830898285 -0.0444391705095768
0.003195086726918816 0.07656595855951309 -0.045586228370666504
0.0032047536224126816 0.07840236276388168 -0.04672793671488762
0.0032121820840984583 0.08015762269496918 -0.047858238220214844
0.003217642894014716 0.08183721452951431 -0.0489676371216774
0.0032219537533819675 0.08344731479883194 -0.050045426934957504
0.0032260718289762735 0.08499306440353394 -0.05108272284269333
0.003230798291042447 0.08647742867469788 -0.052074380218982703
0.0032366192899644375 0.0879008024930954 -0.053019724786281586
0.0032436484470963474 0.08926107734441757 -0.05392238125205041
0.003251639194786548 0.09055410325527191 -0.05478955805301666
0.0032600469421595335 0.09177429229021072 -0.05563093721866608
0.003268117550760508 0.09291577339172363 -0.05645667761564254
0.0032749890815466647 0.09397521615028381 -0.05727255344390869
0.0032797926105558872 0.09495411068201065 -0.05807597562670707
0.003281744895502925 0.09585901349782944 -0.05885560438036919
0.0032802252098917965 0.09670029580593109 -0.05959345400333405
0.0032748340163379903 0.0974905714392662 -0.060267690569162376
0.0032654285896569495 0.09824514389038086 -0.060851804912090295
0.003252137918025255 0.09898266196250916 -0.06131350249052047
0.0032353585120290518 0.09972210228443146 -0.06161990389227867
0.0032157283276319504 0.10047804564237595 -0.06174577027559281
0.0031940888147801156 0.10125626623630524 -0.06168108433485031
0.003171431832015514 0.1020509973168373 -0.06143584102392197
0.003148839809000492 0.10284427553415298 -0.061041142791509635
0.00312742218375206 0.10360748320817949 -0.06054657697677613

CELLS 50 150
2 0 1
2 1 2
2 2 3
2 3 4
2 4 5
2 5 6
2 6 7
2 7 8
2 8 9
2 9 10
2 10 11
2 11 12
2 12 13
2 13 14
2 14 15
2 15 16
2 16 17
2 17 18
2 18 19
2 19 20
2 20 21
2 21 22
2 22 23
2 23 24
2 24 25
2 25 26
2 26 27
2 27 28
2 28 29
2 29 30
2 30 31
2 31 32
2 32 33
2 33 34
2 34 35
2 35 36
2 36 37
2 37 38
2 38 39
2 39 40
2 40 41
2 41 42
2 42 43
2 43 44
2 44 45
2 45 46
2 46 47
2 47 48
2 48 49
2 49 50

CELL_TYPES 50
4
4
4
4
4
4
4
4
4
4
4
4
4
4
4
4
4
4
4
4
4
4
4
4
4
4
4
4
4
4
4
4
4
4
4
4
4
4
4
4
4
4
4
4
4
4
4
4
4
4

POINT_DATA 51

SCALARS zone float
LOOKUP_TABLE default
1.0
1.0
1.0
1.0
1.0
1.0
1.0
1.0
1.0
1.0
1.0
1.0
1.0
1.0
1.0
1.0
1.0
1.0
1.0
1.0
1.0
1.0
1.0
1.0
1.0
1.0
1.0
1.0
1.0
1.0
1.0
1.0
1.0
1.0
1.0
1.0
1.0
1.0
1.0
1.0
1.0
1.0
1.0
1.0
1.0
1.0
1.0
1.0
1.0
1.0
1.0

VECTORS normals float
0.00012213067384436727 0.002067345194518566 -0.0005559804849326611
0.00019123655511066318 0.003921551164239645 -0.001405147835612297
8.932776836445555e-6 0.0035857961047440763 -0.0018347314326092599
-0.0002260355104226619 0.0033636349253356457 -0.0020675642881542444
-0.0003527131921146065 0.0032277114223688845 -0.0021510296501219273
-0.00029881938826292753 0.003248861525207758 -0.0019624351989477873
-0.0001094483450287953 0.003313396824523807 -0.0016986952396109698
8.717876335140318e-5 0.0032442505471408367 -0.0016664984868839383
0.00019969894492533058 0.0031605917029082775 -0.0016594387125223875
0.0002230970421805978 0.003122171154245734 -0.0015740235103294253
0.0001877470058389008 0.0030282961670309305 -0.0015846585156396031
0.00012237193004693836 0.002923540538176894 -0.001614138949662447
4.9504207709105685e-5 0.0028623093385249376 -0.0015682332450523973
-1.4593665582651738e-5 0.0028217413928359747 -0.0014865375123918056
-6.0523194406414405e-5 0.0027654054574668407 -0.0014321525814011693
-8.52772718644701e-5 0.0026818029582500458 -0.0014249950181692839
-9.082671022042632e-5 0.0025817598216235638 -0.0014463133411481977
-8.240483293775469e-5 0.00248695001937449 -0.0014585675671696663
-6.609866250073537e-5 0.0024130321107804775 -0.001434635603800416
-4.695540701504797e-5 0.002359636127948761 -0.0013751588994637132
-2.8520251362351697e-5 0.002314348006621003 -0.0013016385491937399
-1.2950749805895612e-5 0.002263750648126006 -0.001237314660102129
-1.2625629324247711e-6 0.0022016726434230804 -0.0011928754393011332
6.37255334368092e-6 0.0021287291310727596 -0.0011672559194266796
1.0352104254707228e-5 0.0020482491236180067 -0.0011546899331733584
1.1422682291595265e-5 0.0019638200756162405 -0.0011489640455693007
1.050324772222666e-5 0.0018787296721711755 -0.0011443833354860544
8.547682227799669e-6 0.0017958314856514335 -0.0011360058560967445
6.444628070312319e-6 0.0017174234380945563 -0.0011198511347174644
4.885740509052994e-6 0.0016448477981612084 -0.001093594473786652
4.214472937746905e-6 0.0015779273817315698 -0.0010575425112619996
4.422250640345737e-6 0.0015150562394410372 -0.0010144771076738834
5.273810074868379e-6 0.0014538660179823637 -0.0009685003897175193
6.425153969757957e-6 0.0013918238691985607 -0.0009239991195499897
7.509945589845301e-6 0.0013266531750559807 -0.0008849165169522166
8.1992238847306e-6 0.0012566068908199668 -0.0008542789728380739
8.239160706580151e-6 0.0011808339040726423 -0.000833560072351247
7.471068784070667e-6 0.001100461115129292 -0.0008208085782825947
5.837506250827573e-6 0.001019168528728187 -0.0008096499368548392
3.3778785564209097e-6 0.0009418984409421682 -0.0007915243040770292
2.163614567507466e-7 0.0008730928529985249 -0.0007587376749143004
-3.455363639659481e-6 0.0008157805423252283 -0.0007060441421344876
-7.398393336188747e-6 0.0007724251481704414 -0.0006291763857007027
-1.1348053703841288e-5 0.000746046076528728 -0.0005229049711488187
-1.5035005162644666e-5 0.0007384791970252991 -0.0003840496647171676
-1.8204780644737184e-5 0.0007476900354959071 -0.00021613467833958566
-2.06348231586162e-5 0.000767079705838114 -3.0589410016546026e-5
-2.214833330071997e-5 0.0007864751387387514 0.0001549659646116197
-2.2624490156886168e-5 0.0007940050563775002 0.00031996957841329277
-2.2004807760822587e-5 0.0007782440516166389 0.0004446320526767522
-1.070886446541408e-5 0.0003816037788055837 0.0002472844207659364

CELL_DATA 50

VECTORS liftinglineloading               float
-0.030274508520960804 0.029292456805706024 0.06281787157058716
-0.06378288567066193 0.09956206381320953 0.2135115414857864
-0.2185925990343094 0.20923136174678802 0.44869810342788696
0.8049337863922119 -0.0037635779008269306 -0.008071019314229488
2.806105852127075 -0.07961027324199677 -0.1707247793674469
3.201111078262329 -0.15968936681747437 -0.3424549400806427
1.322756052017212 -0.055257271975278854 -0.11849959939718246
-1.5179530382156372 0.3749668300151825 0.8041189908981323
-5.455197811126709 0.7505754828453064 1.609614372253418
-8.241988182067871 1.0125449895858765 2.171409845352173
-9.615433692932129 1.1751878261566162 2.5201985836029053
-10.082589149475098 1.266982078552246 2.7170517444610596
-10.418041229248047 1.3480932712554932 2.8909952640533447
-10.15580940246582 1.3394228219985962 2.872401475906372
-9.376395225524902 1.2553484439849854 2.692103624343872
-9.116047859191895 1.213937520980835 2.603297233581543
-8.78736400604248 1.1199572086334229 2.4017560482025146
-8.688117027282715 1.0987534523010254 2.3562843799591064
-9.488626480102539 1.1599074602127075 2.48742938041687
-10.220046997070312 1.1581752300262451 2.4837148189544678
-11.577962875366211 1.2155112028121948 2.6066722869873047
-13.518264770507814 1.2845097780227661 2.7546401023864746
-16.02034568786621 1.3621162176132202 2.921067714691162
-17.798587799072266 1.3382033109664917 2.869786262512207
-20.67056655883789 1.41652250289917 3.0377421379089355
-23.491920471191406 1.41388738155365 3.0320913791656494
-26.337533950805664 1.4047722816467285 3.0125439167022705
-29.459228515625 1.3662720918655396 2.9299800395965576
-30.669435501098633 1.261223316192627 2.704702138900757
-32.80178451538086 1.1738991737365723 2.51743483543396
-33.47901153564453 1.0311734676361084 2.2113585472106934
-34.90989685058594 0.9808499813079834 2.1034395694732666
-35.216224670410156 0.9486187100410461 2.0343194007873535
-35.443973541259766 0.7845346331596375 1.682439923286438
-35.933963775634766 0.7365550398826599 1.57954740524292
-36.98563766479492 0.6808199286460876 1.460023045539856
-40.002464294433594 0.6519256830215454 1.3980591297149658
-32.7476921081543 0.622911274433136 1.3358376026153564
-28.872018814086918 0.6095080375671387 1.3070942163467407
-25.6337947845459 0.5979945063591003 1.2824033498764038
-22.893348693847656 0.5520132184028625 1.1837961673736572
-19.370319366455078 0.5938336253166199 1.2734802961349487
-15.76861095428467 0.6961658000946045 1.4929324388504028
-12.666030883789062 0.7191765904426575 1.5422791242599487
-9.961146354675293 0.8547347784042357 1.8329845666885376
-7.903352737426758 0.8879489302635193 1.904212713241577
-6.0271453857421875 0.8992515802383422 1.9284512996673584
-4.426296234130859 0.8969281315803529 1.923468589782715
-2.946335554122925 0.8880622982978822 1.9044556617736819
-1.5350275039672852 0.8770076632499696 1.8807489871978758