# vtk DataFile Version 4.0
 
ASCII
DATASET UNSTRUCTURED_GRID
POINTS 51 float
0.0034458015579730272 0.007097822614014149 0.0017268700757995248
0.00369006278924644 0.009242030791938305 0.005432877689599991
0.0038282745517790313 0.011842303909361362 0.00857536680996418
0.0037079283501952887 0.014642604626715183 0.011410376988351345
0.003376203589141369 0.017577677965164185 0.01400316134095192
0.0030025020241737366 0.020468860864639282 0.016532381996512413
0.002778564812615514 0.023050544783473015 0.019263647496700287
0.0027836053632199764 0.025465628132224083 0.02205406315624714
0.0029529223684221506 0.027949320152401924 0.024668416008353233
0.003183003049343825 0.030307460576295853 0.027300868183374405
0.0033991164527833466 0.032606255263090134 0.029885211959481236
0.0035584971774369474 0.03493634611368179 0.03233080729842186
0.0036438601091504097 0.03723786771297455 0.0346975214779377
0.003657505614683032 0.03944758325815201 0.0370485857129097
0.003614672925323248 0.041570279747247696 0.039379216730594635
0.0035364592913538218 0.043645765632390976 0.041649602353572845
0.003444118425250053 0.04571136087179184 0.043822430074214935
0.0033548057544976473 0.047776248306035995 0.0458885133266449
0.0032793087884783745 0.04981643706560135 0.04787183925509453
0.0032226084731519227 0.05179682746529579 0.049807511270046234
0.003185397945344448 0.053694479167461395 0.051718469709157944
0.0031655679922550917 0.05550939589738846 0.05360471084713936
0.0031594964675605297 0.05725659057497978 0.055451221764087684
0.0031630429439246655 0.05895352363586426 0.05724053829908372
0.003172241384163499 0.0606134682893753 0.05895939469337463
0.0031837469432502985 0.062244463711977005 0.06059974059462547
0.003195086726918816 0.06384964287281036 0.062158454209566116
0.0032047536224126816 0.0654277428984642 0.06363678723573685
0.0032121820840984583 0.06697382777929306 0.06503969430923462
0.003217642894014716 0.06848013401031494 0.06637492030858994
0.0032219537533819675 0.06993792951107025 0.06765121221542358
0.0032260718289762735 0.07133994251489639 0.06887581944465637
0.003230798291042447 0.07268199324607849 0.07005294412374496
0.0032366192899644375 0.07396352291107178 0.07118313759565353
0.0032436484470963474 0.07518748939037323 0.0722634419798851
0.003251639194786548 0.07635977864265442 0.0732879713177681
0.0032600469421595335 0.07748829573392868 0.07424881309270859
0.003268117550760508 0.07858133316040039 0.0751376822590828
0.0032749890815466647 0.079643614590168 0.07594985514879227
0.0032797926105558872 0.08067301660776138 0.07668746262788773
0.003281744895502925 0.08166028559207916 0.07735974341630936
0.0032802252098917965 0.0825907364487648 0.07798139750957489
0.0032748340163379903 0.08344653993844986 0.07857023179531097
0.0032654285896569495 0.08420604467391968 0.07914792001247406
0.003252137918025255 0.08484289050102234 0.07974080741405487
0.0032353585120290518 0.08533024042844772 0.08037575334310532
0.0032157283276319504 0.08564746379852295 0.08107335865497589
0.0031940888147801156 0.08578640222549438 0.08184180408716202
0.003171431832015514 0.08575520664453506 0.08267292380332947
0.003148839809000492 0.0855792760848999 0.08354133367538452
0.00312742218375206 0.08529908955097198 0.0844065397977829

CELLS 50 150
2 0 1
2 1 2
2 2 3
2 3 4
2 4 5
2 5 6
2 6 7
2 7 8
2 8 9
2 9 10
2 10 11
2 11 12
2 12 13
2 13 14
2 14 15
2 15 16
2 16 17
2 17 18
2 18 19
2 19 20
2 20 21
2 21 22
2 22 23
2 23 24
2 24 25
2 25 26
2 26 27
2 27 28
2 28 29
2 29 30
2 30 31
2 31 32
2 32 33
2 33 34
2 34 35
2 35 36
2 36 37
2 37 38
2 38 39
2 39 40
2 40 41
2 41 42
2 42 43
2 43 44
2 44 45
2 45 46
2 46 47
2 47 48
2 48 49
2 49 50

CELL_TYPES 50
4
4
4
4
4
4
4
4
4
4
4
4
4
4
4
4
4
4
4
4
4
4
4
4
4
4
4
4
4
4
4
4
4
4
4
4
4
4
4
4
4
4
4
4
4
4
4
4
4
4

POINT_DATA 51

SCALARS zone float
LOOKUP_TABLE default
1.0
1.0
1.0
1.0
1.0
1.0
1.0
1.0
1.0
1.0
1.0
1.0
1.0
1.0
1.0
1.0
1.0
1.0
1.0
1.0
1.0
1.0
1.0
1.0
1.0
1.0
1.0
1.0
1.0
1.0
1.0
1.0
1.0
1.0
1.0
1.0
1.0
1.0
1.0
1.0
1.0
1.0
1.0
1.0
1.0
1.0
1.0
1.0
1.0
1.0
1.0

VECTORS normals float
0.00012213067384436727 0.0010721042053774 0.0018530037486925721
0.00019123655511066318 0.002372240647673607 0.003424248658120632
8.932776836445555e-6 0.002700286917388439 0.002988749649375677
-0.0002260355104226619 0.0028676865622401237 0.0027138967998325825
-0.0003527131921146065 0.002913128351792693 0.0025610022712498903
-0.00029881938826292753 0.002736434107646346 0.002630243543535471
-0.0001094483450287953 0.002498383866623044 0.0027608408126980066
8.717876335140318e-5 0.0024493876844644547 0.002702383790165186
0.00019969894492533058 0.002420915989205241 0.0026234027463942766
0.0002230970421805978 0.002328467322513461 0.0026083984412252903
0.0001877470058389008 0.0023144432343542576 0.0025149695575237274
0.00012237193004693836 0.002315806457772851 0.0024061533622443676
4.9504207709105685e-5 0.0022556171752512455 0.0023588899057358503
-1.4593665582651738e-5 0.002166205318644643 0.002340848557651043
-6.0523194406414405e-5 0.0020990928169339895 0.0023005083203315735
-8.52772718644701e-5 0.002070541260764003 0.002221606904640794
-9.082671022042632e-5 0.0020652401726692915 0.0021194550208747387
-8.240483293775469e-5 0.0020525380969047546 0.002024704124778509
-6.609866250073537e-5 0.002010290278121829 0.0019594989717006683
-4.695540701504797e-5 0.0019390202360227704 0.0019233161583542824
-2.8520251362351697e-5 0.0018562837503850458 0.0018985996721312402
-1.2950749805895612e-5 0.001781055936589837 0.0018663745140656829
-1.2625629324247711e-6 0.0017220639856532216 0.0018179136095568538
6.37255334368092e-6 0.0016784382751211526 0.0017540863482281566
1.0352104254707228e-5 0.0016454707365483046 0.0016796009149402378
1.1422682291595265e-5 0.0016180881066247823 0.0015995306894183157
1.050324772222666e-5 0.0015916404081508517 0.001518525299616158
8.547682227799669e-6 0.0015620928024873137 0.0014406200498342514
6.444628070312319e-6 0.0015261949738487601 0.0013690649066120386
4.885740509052994e-6 0.0014820491196587682 0.0013057577889412642
4.214472937746905e-6 0.0014299053000286222 0.0012504486367106438
4.422250640345737e-6 0.0013720350107178092 0.0012008659541606903
5.273810074868379e-6 0.001311787753365934 0.001153660356067121
6.425153969757957e-6 0.0012527451617643237 0.0011052500922232866
7.509945589845301e-6 0.0011981268180534244 0.0010524153476580977
8.1992238847306e-6 0.0011504038702696562 0.0009926853235810995
8.239160706580151e-6 0.0011107795871794224 0.0009248568094335496
7.471068784070667e-6 0.0010776604758575559 0.0008505228906869888
5.837506250827573e-6 0.0010458420729264617 0.0007748883799649775
3.3778785564209097e-6 0.0010083350352942944 0.0007049424457363784
2.163614567507466e-7 0.0009588573593646288 0.0006469672080129385
-3.455363639659481e-6 0.0008931257762014865 0.0006052458193153143
-7.398393336188747e-6 0.0008076560916379094 0.000583262590225786
-1.1348053703841288e-5 0.0006981783080846071 0.0005852874019183218
-1.5035005162644666e-5 0.0005620960146188736 0.0006139167817309499
-1.8204780644737184e-5 0.0004022864741273224 0.0006662733503617346
-2.06348231586162e-5 0.00022808193170931193 0.0007330249645747244
-2.214833330071997e-5 5.3869127441430464e-5 0.0007997847860679032
-2.2624490156886168e-5 -0.00010356323036830874 0.0008497642120346427
-2.2004807760822587e-5 -0.00022805720800533893 0.0008668052614666522
-1.070886446541408e-5 -0.00014009207370691001 0.00043260285747237504

CELL_DATA 50

VECTORS liftinglineloading               float
-0.37601128220558167 -0.6392784118652344 0.5364182591438293
-0.7165947556495667 -1.5275747776031494 1.281787395477295
-1.5952774286270142 -2.634953022003174 2.2109880447387695
1.763178825378418 -0.19824554026126862 0.16634775698184967
5.682104587554932 -0.4912260174751281 0.41218757629394537
8.936583518981934 -0.6562857627868652 0.550689160823822
6.4588847160339355 -0.379538893699646 0.31847095489501953
1.9524260759353638 -0.3141866624355316 0.2636339068412781
-2.5557117462158203 -1.1236063241958618 0.9428176879882812
-6.069633483886719 -1.718073487281799 1.4416348934173584
-7.173082828521728 -1.8448700904846194 1.5480297803878784
-9.255470275878906 -1.658268928527832 1.3914527893066406
-7.350983619689941 -1.4986062049865723 1.2574799060821533
-5.071150779724121 -1.2497299909591675 1.0486479997634888
-2.9733734130859375 -0.8403376936912537 0.7051270604133606
-2.1796865463256836 -0.684285581111908 0.5741837620735168
-2.205265998840332 -0.6894636750221252 0.5785287618637085
-3.385378360748291 -0.8853344917297363 0.7428838610649109
-5.479432582855225 -1.2186170816421509 1.0225411653518677
-7.588574409484864 -1.4388490915298462 1.207337737083435
-9.87564754486084 -1.6626023054122923 1.395089030265808
-11.364053726196289 -1.7854077816009521 1.498134970664978
-12.166237831115723 -1.8588441610336304 1.5597554445266724
-11.427895545959473 -1.737216353416443 1.4576976299285889
-11.285016059875488 -1.7808990478515625 1.4943516254425049
-11.061605453491211 -1.7513253688812256 1.4695364236831665
-10.618865013122559 -1.7089692354202268 1.4339953660964966
-10.767178535461426 -1.7532097101211548 1.471117615699768
-11.311369895935059 -1.8186317682266235 1.5260132551193237
-10.517873764038086 -1.7440924644470215 1.4634673595428467
-11.267884254455566 -1.7789024114608765 1.4926763772964478
-11.448676109313965 -1.7294121980667114 1.4511491060256958
-11.781469345092773 -1.6336766481399538 1.3708175420761108
-12.047460556030273 -1.6323294639587402 1.3696870803833008
-12.053603172302246 -1.5923441648483276 1.3361353874206543
-12.338627815246582 -1.5359082221984863 1.2887800931930542
-12.166838645935059 -1.3807817697525024 1.1586135625839233
-12.262540817260742 -1.3210840225219727 1.1085211038589478
-11.820286750793457 -1.255145788192749 1.053192377090454
-11.470049858093262 -1.1755398511886597 0.9863950014114379
-10.97136402130127 -1.1215084791183472 0.9410573840141297
-9.785743713378906 -1.0633713006973267 0.8922744393348693
-8.17532730102539 -1.0368351936340332 0.8700080513954164
-6.983216285705567 -0.998166859149933 0.8375614285469055
-5.885704517364502 -1.0251691341400146 0.8602190017700195
-4.8097453117370605 -1.0404510498046875 0.8730421066284179
-3.7995283603668213 -1.0052566528320312 0.8435104489326477
-2.8576087951660156 -0.9970719218254089 0.8366426825523376
-1.9350446462631223 -0.9659133553504944 0.810497522354126
-1.0113766193389893 -0.9238812923431396 0.7752284407615662