# vtk DataFile Version 4.0
 
ASCII
DATASET UNSTRUCTURED_GRID
POINTS 51 float
0.0034458015579730272 0.007097822614014149 0.0017268700757995248
0.00369006278924644 0.009242030791938305 0.005432877689599991
0.0038282745517790313 0.011842303909361362 0.00857536680996418
0.0037079283501952887 0.014642604626715183 0.011410376988351345
0.003376203589141369 0.017577677965164185 0.01400316134095192
0.0030025020241737366 0.020468860864639282 0.016532381996512413
0.002778564812615514 0.023050544783473015 0.019263647496700287
0.0027836053632199764 0.025465628132224083 0.02205406315624714
0.0029529223684221506 0.027949320152401924 0.024668416008353233
0.003183003049343825 0.030307460576295853 0.027300868183374405
0.0033991164527833466 0.032606255263090134 0.029885211959481236
0.0035584971774369474 0.03493634611368179 0.03233080729842186
0.0036438601091504097 0.03723786771297455 0.0346975214779377
0.003657505614683032 0.03944758325815201 0.0370485857129097
0.003614672925323248 0.041570279747247696 0.039379216730594635
0.0035364592913538218 0.043645765632390976 0.041649602353572845
0.003444118425250053 0.04571136087179184 0.043822430074214935
0.0033548057544976473 0.047776248306035995 0.0458885133266449
0.0032793087884783745 0.04981643706560135 0.04787183925509453
0.0032226084731519227 0.05179682746529579 0.049807511270046234
0.003185397945344448 0.053694479167461395 0.051718469709157944
0.0031655679922550917 0.05550939589738846 0.05360471084713936
0.0031594964675605297 0.05725659057497978 0.055451221764087684
0.0031630429439246655 0.05895352363586426 0.05724053829908372
0.003172241384163499 0.0606134682893753 0.05895939469337463
0.0031837469432502985 0.062244463711977005 0.06059974059462547
0.003195086726918816 0.06384964287281036 0.062158454209566116
0.0032047536224126816 0.0654277428984642 0.06363678723573685
0.0032121820840984583 0.06697382777929306 0.06503969430923462
0.003217642894014716 0.06848013401031494 0.06637492030858994
0.0032219537533819675 0.06993792951107025 0.06765121221542358
0.0032260718289762735 0.07133994251489639 0.06887581944465637
0.003230798291042447 0.07268199324607849 0.07005294412374496
0.0032366192899644375 0.07396352291107178 0.07118313759565353
0.0032436484470963474 0.07518748939037323 0.0722634419798851
0.003251639194786548 0.07635977864265442 0.0732879713177681
0.0032600469421595335 0.07748829573392868 0.07424881309270859
0.003268117550760508 0.07858133316040039 0.0751376822590828
0.0032749890815466647 0.079643614590168 0.07594985514879227
0.0032797926105558872 0.08067301660776138 0.07668746262788773
0.003281744895502925 0.08166028559207916 0.07735974341630936
0.0032802252098917965 0.0825907364487648 0.07798139750957489
0.0032748340163379903 0.08344653993844986 0.07857023179531097
0.0032654285896569495 0.08420604467391968 0.07914792001247406
0.003252137918025255 0.08484289050102234 0.07974080741405487
0.0032353585120290518 0.08533024042844772 0.08037575334310532
0.0032157283276319504 0.08564746379852295 0.08107335865497589
0.0031940888147801156 0.08578640222549438 0.08184180408716202
0.003171431832015514 0.08575520664453506 0.08267292380332947
0.003148839809000492 0.0855792760848999 0.08354133367538452
0.00312742218375206 0.08529908955097198 0.0844065397977829

CELLS 50 150
2 0 1
2 1 2
2 2 3
2 3 4
2 4 5
2 5 6
2 6 7
2 7 8
2 8 9
2 9 10
2 10 11
2 11 12
2 12 13
2 13 14
2 14 15
2 15 16
2 16 17
2 17 18
2 18 19
2 19 20
2 20 21
2 21 22
2 22 23
2 23 24
2 24 25
2 25 26
2 26 27
2 27 28
2 28 29
2 29 30
2 30 31
2 31 32
2 32 33
2 33 34
2 34 35
2 35 36
2 36 37
2 37 38
2 38 39
2 39 40
2 40 41
2 41 42
2 42 43
2 43 44
2 44 45
2 45 46
2 46 47
2 47 48
2 48 49
2 49 50

CELL_TYPES 50
4
4
4
4
4
4
4
4
4
4
4
4
4
4
4
4
4
4
4
4
4
4
4
4
4
4
4
4
4
4
4
4
4
4
4
4
4
4
4
4
4
4
4
4
4
4
4
4
4
4

POINT_DATA 51

SCALARS zone float
LOOKUP_TABLE default
1.0
1.0
1.0
1.0
1.0
1.0
1.0
1.0
1.0
1.0
1.0
1.0
1.0
1.0
1.0
1.0
1.0
1.0
1.0
1.0
1.0
1.0
1.0
1.0
1.0
1.0
1.0
1.0
1.0
1.0
1.0
1.0
1.0
1.0
1.0
1.0
1.0
1.0
1.0
1.0
1.0
1.0
1.0
1.0
1.0
1.0
1.0
1.0
1.0
1.0
1.0

VECTORS normals float
0.00012213067384436727 0.0010721042053774 0.0018530037486925721
0.00019123655511066318 0.002372240647673607 0.003424248658120632
8.932776836445555e-6 0.002700286917388439 0.002988749649375677
-0.0002260355104226619 0.0028676865622401237 0.0027138967998325825
-0.0003527131921146065 0.002913128351792693 0.0025610022712498903
-0.00029881938826292753 0.002736434107646346 0.002630243543535471
-0.0001094483450287953 0.002498383866623044 0.0027608408126980066
8.717876335140318e-5 0.0024493876844644547 0.002702383790165186
0.00019969894492533058 0.002420915989205241 0.0026234027463942766
0.0002230970421805978 0.002328467322513461 0.0026083984412252903
0.0001877470058389008 0.0023144432343542576 0.0025149695575237274
0.00012237193004693836 0.002315806457772851 0.0024061533622443676
4.9504207709105685e-5 0.0022556171752512455 0.0023588899057358503
-1.4593665582651738e-5 0.002166205318644643 0.002340848557651043
-6.0523194406414405e-5 0.0020990928169339895 0.0023005083203315735
-8.52772718644701e-5 0.002070541260764003 0.002221606904640794
-9.082671022042632e-5 0.0020652401726692915 0.0021194550208747387
-8.240483293775469e-5 0.0020525380969047546 0.002024704124778509
-6.609866250073537e-5 0.002010290278121829 0.0019594989717006683
-4.695540701504797e-5 0.0019390202360227704 0.0019233161583542824
-2.8520251362351697e-5 0.0018562837503850458 0.0018985996721312402
-1.2950749805895612e-5 0.001781055936589837 0.0018663745140656829
-1.2625629324247711e-6 0.0017220639856532216 0.0018179136095568538
6.37255334368092e-6 0.0016784382751211526 0.0017540863482281566
1.0352104254707228e-5 0.0016454707365483046 0.0016796009149402378
1.1422682291595265e-5 0.0016180881066247823 0.0015995306894183157
1.050324772222666e-5 0.0015916404081508517 0.001518525299616158
8.547682227799669e-6 0.0015620928024873137 0.0014406200498342514
6.444628070312319e-6 0.0015261949738487601 0.0013690649066120386
4.885740509052994e-6 0.0014820491196587682 0.0013057577889412642
4.214472937746905e-6 0.0014299053000286222 0.0012504486367106438
4.422250640345737e-6 0.0013720350107178092 0.0012008659541606903
5.273810074868379e-6 0.001311787753365934 0.001153660356067121
6.425153969757957e-6 0.0012527451617643237 0.0011052500922232866
7.509945589845301e-6 0.0011981268180534244 0.0010524153476580977
8.1992238847306e-6 0.0011504038702696562 0.0009926853235810995
8.239160706580151e-6 0.0011107795871794224 0.0009248568094335496
7.471068784070667e-6 0.0010776604758575559 0.0008505228906869888
5.837506250827573e-6 0.0010458420729264617 0.0007748883799649775
3.3778785564209097e-6 0.0010083350352942944 0.0007049424457363784
2.163614567507466e-7 0.0009588573593646288 0.0006469672080129385
-3.455363639659481e-6 0.0008931257762014865 0.0006052458193153143
-7.398393336188747e-6 0.0008076560916379094 0.000583262590225786
-1.1348053703841288e-5 0.0006981783080846071 0.0005852874019183218
-1.5035005162644666e-5 0.0005620960146188736 0.0006139167817309499
-1.8204780644737184e-5 0.0004022864741273224 0.0006662733503617346
-2.06348231586162e-5 0.00022808193170931193 0.0007330249645747244
-2.214833330071997e-5 5.3869127441430464e-5 0.0007997847860679032
-2.2624490156886168e-5 -0.00010356323036830874 0.0008497642120346427
-2.2004807760822587e-5 -0.00022805720800533893 0.0008668052614666522
-1.070886446541408e-5 -0.00014009207370691001 0.00043260285747237504

CELL_DATA 50

VECTORS liftinglineloading               float
-0.020295776426792145 -0.21546401083469394 0.18079577386379242
-0.21623389422893527 -0.850075602531433 0.7132980823516846
-1.104357123374939 -1.91842782497406 1.6097520589828491
2.544074296951294 -0.13651424646377563 0.11454906314611435
8.08664608001709 -0.3685449957847595 0.3092459738254547
14.675398826599121 -0.5855277180671692 0.49131608009338373
11.42042064666748 -0.588576078414917 0.4938739538192749
2.4267749786376953 -1.114710807800293 0.9353533983230592
-8.290365219116211 -3.626940488815307 3.0433645248413086
-18.20846176147461 -5.222992897033691 4.382611274719238
-24.009450912475586 -5.549282073974609 4.656400203704834
-24.708980560302734 -5.0685553550720215 4.25302267074585
-24.873441696166992 -4.683140754699707 3.929621934890747
-24.99456024169922 -4.583111763000488 3.845687389373779
-25.342876434326172 -4.581155776977539 3.8440461158752437
-25.997888565063477 -4.026780605316162 3.3788702487945557
-27.371076583862305 -3.134310483932495 2.6299986839294434
-27.320899963378906 -2.754019260406494 2.310896396636963
-24.18383026123047 -2.8564460277557373 2.3968427181243896
-20.3807373046875 -2.9071455001831055 2.439384698867798
-15.608967781066895 -2.5652029514312744 2.152460813522339
-11.709412574768066 -2.1840426921844482 1.832629323005676
-9.215497016906738 -1.9322823286056519 1.6213774681091309
-7.6881489753723145 -1.7373579740524292 1.457816481590271
-7.962420463562011 -1.7987141609191895 1.5093003511428833
-8.30526351928711 -1.813493847846985 1.5217020511627197
-8.56591796875 -1.814504027366638 1.5225496292114258
-9.252127647399902 -1.895861625671387 1.5908167362213135
-10.13990306854248 -1.9756891727447508 1.6578000783920288
-9.845170021057129 -1.9337692260742185 1.6226251125335693
-11.271772384643555 -2.0238752365112305 1.6982330083847046
-11.592870712280273 -1.9591740369796753 1.6439422369003296
-12.02033805847168 -1.85219943523407 1.5541799068450928
-12.286652565002441 -1.8600925207138062 1.560802936553955
-12.199485778808594 -1.8091154098510744 1.5180281400680542
-12.087371826171875 -1.7315104007720947 1.4529098272323608
-11.8023042678833 -1.5483860969543457 1.2992502450942993
-11.991220474243164 -1.4864336252212524 1.2472658157348633
-11.464788436889648 -1.4054336547851562 1.1792988777160645
-11.035113334655762 -1.312053918838501 1.100943922996521
-10.407904624938965 -1.252767562866211 1.051196813583374
-9.098224639892578 -1.184503436088562 0.9939164519309998
-7.563291072845459 -1.1421780586242676 0.9584011435508729
-6.4723896980285645 -1.0993338823318481 0.9224506616592407
-5.591746807098389 -1.0943868160247803 0.9182995557785034
-4.5099358558654785 -1.100577473640442 0.9234941601753234
-3.5687260627746578 -1.0565682649612427 0.8865660429000854
-2.6952829360961914 -1.047656774520874 0.8790884613990784
-1.859403610229492 -1.0137362480163574 0.8506256937980652
-0.966818630695343 -0.9662883877754211 0.81081223487854