# vtk DataFile Version 4.0
 
ASCII
DATASET UNSTRUCTURED_GRID
POINTS 51 float
0.0034458015579730272 -0.007010329514741898 0.0020533979404717684
0.00369006278924644 -0.010720272548496723 -8.399440412176773e-5
0.0038282745517790313 -0.01454341970384121 -0.0015053338138386607
0.0037079283501952887 -0.018386056646704674 -0.002560373628512025
0.003376203589141369 -0.022224295884370804 -0.0033382545225322247
0.0030025020241737366 -0.025992743670940396 -0.004083031322807074
0.002778564812615514 -0.0295941811054945 -0.005157535895705223
0.0027836053632199764 -0.03308091312646866 -0.006366564426571131
0.0029529223684221506 -0.03653902933001518 -0.007388814352452755
0.003183003049343825 -0.03989746421575546 -0.008489514701068401
0.0033991164527833466 -0.043180450797080994 -0.009578226134181023
0.0035584971774369474 -0.04642116650938988 -0.010531126521527767
0.0036438601091504097 -0.04959769919514656 -0.011429999023675919
0.003657505614683032 -0.0526868999004364 -0.012361226603388786
0.003614672925323248 -0.05569052696228027 -0.0133182629942894
0.0035364592913538218 -0.05862314626574516 -0.014246731065213682
0.003444118425250053 -0.06149841472506523 -0.015095657669007778
0.0033548057544976473 -0.06431970000267029 -0.015852494165301323
0.0032793087884783745 -0.06707821786403656 -0.016550010070204735
0.0032226084731519227 -0.06976112723350525 -0.01723615638911724
0.003185397945344448 -0.07236001640558243 -0.017942270264029503
0.0031655679922550917 -0.07487490028142929 -0.018668344244360924
0.0031594964675605297 -0.07731126993894577 -0.01939387060701847
0.0031630429439246655 -0.07967551797628403 -0.02009499818086624
0.003172241384163499 -0.08197250217199326 -0.02075359970331192
0.0031837469432502985 -0.08420515805482864 -0.021358681842684746
0.003195086726918816 -0.08637464046478271 -0.02190597914159298
0.0032047536224126816 -0.08848048746585846 -0.022397205233573914
0.0032121820840984583 -0.09052088111639023 -0.02283911406993866
0.003217642894014716 -0.09249299764633179 -0.023242300376296043
0.0032219537533819675 -0.09439362585544586 -0.023618703708052635
0.0032260718289762735 -0.09622011333703995 -0.023978235200047493
0.003230798291042447 -0.09797092527151108 -0.0243266299366951
0.0032366192899644375 -0.09964586049318314 -0.02466464601457119
0.0032436484470963474 -0.10124599188566208 -0.024988234043121338
0.003251639194786548 -0.10277348756790161 -0.025289354845881462
0.0032600469421595335 -0.10423123836517333 -0.02555721066892147
0.003268117550760508 -0.1056222766637802 -0.02578047476708889
0.0032749890815466647 -0.10694832354784013 -0.02595269866287708
0.0032797926105558872 -0.10820861160755159 -0.0260767787694931
0.003281744895502925 -0.109399750828743 -0.02616536058485508
0.0032802252098917965 -0.11051636934280394 -0.02623850107192993
0.0032748340163379903 -0.1115519404411316 -0.026320550590753552
0.0032654285896569495 -0.11249853670597078 -0.02644108608365059
0.003252137918025255 -0.11334650963544847 -0.026636119931936264
0.0032353585120290518 -0.11408603191375732 -0.02694232575595379
0.0032157283276319504 -0.11470956355333328 -0.027387853711843487
0.0031940888147801156 -0.11521410197019576 -0.02798387967050076
0.003171431832015514 -0.11560264974832536 -0.028719251975417137
0.003148839809000492 -0.11588449031114578 -0.02955927699804306
0.00312742218375206 -0.11607445031404495 -0.030448660254478458

CELLS 50 150
2 0 1
2 1 2
2 2 3
2 3 4
2 4 5
2 5 6
2 6 7
2 7 8
2 8 9
2 9 10
2 10 11
2 11 12
2 12 13
2 13 14
2 14 15
2 15 16
2 16 17
2 17 18
2 18 19
2 19 20
2 20 21
2 21 22
2 22 23
2 23 24
2 24 25
2 25 26
2 26 27
2 27 28
2 28 29
2 29 30
2 30 31
2 31 32
2 32 33
2 33 34
2 34 35
2 35 36
2 36 37
2 37 38
2 38 39
2 39 40
2 40 41
2 41 42
2 42 43
2 43 44
2 44 45
2 45 46
2 46 47
2 47 48
2 48 49
2 49 50

CELL_TYPES 50
4
4
4
4
4
4
4
4
4
4
4
4
4
4
4
4
4
4
4
4
4
4
4
4
4
4
4
4
4
4
4
4
4
4
4
4
4
4
4
4
4
4
4
4
4
4
4
4
4
4

POINT_DATA 51

SCALARS zone float
LOOKUP_TABLE default
1.0
1.0
1.0
1.0
1.0
1.0
1.0
1.0
1.0
1.0
1.0
1.0
1.0
1.0
1.0
1.0
1.0
1.0
1.0
1.0
1.0
1.0
1.0
1.0
1.0
1.0
1.0
1.0
1.0
1.0
1.0
1.0
1.0
1.0
1.0
1.0
1.0
1.0
1.0
1.0
1.0
1.0
1.0
1.0
1.0
1.0
1.0
1.0
1.0
1.0
1.0

VECTORS normals float
0.00012213067384436727 -0.0018549712840467691 -0.0010686961468309164
0.00019123655511066318 -0.003766545094549656 -0.0017793659353628755
8.932776836445555e-6 -0.0038328918162733316 -0.0012381896376609802
-0.0002260355104226619 -0.003840437857434153 -0.000916460412554443
-0.0003527131921146065 -0.0038033442106097937 -0.0007613289053551853
-0.00029881938826292753 -0.003684943076223135 -0.00090964074479416
-0.0001094483450287953 -0.003544084262102842 -0.001141766319051385
8.717876335140318e-5 -0.003472423879429698 -0.001115639228373766
0.00019969894492533058 -0.0034082760103046894 -0.0010614754864946008
0.0002230970421805978 -0.003320711199194193 -0.0010947056580334902
0.0001877470058389008 -0.0032618513796478514 -0.001020805910229683
0.00012237193004693836 -0.0032086239662021403 -0.0009258867357857526
4.9504207709105685e-5 -0.003132866695523262 -0.0009150499245151878
-1.4593665582651738e-5 -0.0030464131850749254 -0.0009441316942684352
-6.0523194406414405e-5 -0.002968121785670519 -0.000942752172704786
-8.52772718644701e-5 -0.0029039448127150536 -0.0008886974537745119
-9.082671022042632e-5 -0.002848278032615781 -0.0008028818992897868
-8.240483293775469e-5 -0.0027899022679775953 -0.0007271762005984783
-6.609866250073537e-5 -0.002720711985602975 -0.0006918307626619935
-4.695540701504797e-5 -0.0026408988051116467 -0.0006961305043660104
-2.8520251362351697e-5 -0.0025568886194378138 -0.0007160937529988587
-1.2950749805895612e-5 -0.002475626999512315 -0.0007257997640408576
-1.2625629324247711e-6 -0.0024003079161047935 -0.0007133273757062852
6.37255334368092e-6 -0.002330613322556019 -0.0006798641406930983
1.0352104254707228e-5 -0.0022648198064416647 -0.0006318417727015913
1.1422682291595265e-5 -0.002201070776209235 -0.000576190126594156
1.050324772222666e-5 -0.0021376637741923332 -0.0005192612879909575
8.547682227799669e-6 -0.0020731219556182623 -0.00046656720223836606
6.444628070312319e-6 -0.0020062560215592384 -0.00042254742584191263
4.885740509052994e-6 -0.0019363710889592765 -0.00038979490636847913
4.214472937746905e-6 -0.001863558660261333 -0.00036796764470636845
4.422250640345737e-6 -0.0017886501736938951 -0.0003539629396982491
5.273810074868379e-6 -0.0017128717154264448 -0.0003432053199503571
6.425153969757957e-6 -0.0016375341219827533 -0.0003308020532131195
7.509945589845301e-6 -0.001563815982080996 -0.00031235499773174524
8.1992238847306e-6 -0.0014926217263564467 -0.0002844887494575232
8.239160706580151e-6 -0.0014243916375562549 -0.0002455596986692399
7.471068784070667e-6 -0.001358542824164033 -0.00019774417160078883
5.837506250827573e-6 -0.0012931699166074395 -0.00014815203030593693
3.3778785564209097e-6 -0.0012257149210199714 -0.00010633056808728725
2.163614567507466e-7 -0.0011538784019649029 -8.086133311735466e-5
-3.455363639659481e-6 -0.0010760924778878689 -7.759533036733046e-5
-7.398393336188747e-6 -0.0009910819353535771 -0.00010129217116627842
-1.1348053703841288e-5 -0.0008972838404588402 -0.000157784583279863
-1.5035005162644666e-5 -0.0007937477785162629 -0.0002506195451132953
-1.8204780644737184e-5 -0.0006815269589424133 -0.0003758663951884955
-2.06348231586162e-5 -0.0005640372401103377 -0.0005207772483117878
-2.214833330071997e-5 -0.0004465444362722337 -0.0006656994228251278
-2.2624490156886168e-5 -0.00033519373391754925 -0.000787699013017118
-2.2004807760822587e-5 -0.0002358992933295667 -0.0008647039649076759
-1.070886446541408e-5 -9.497813880443573e-5 -0.0004446911043487489

CELL_DATA 50

VECTORS liftinglineloading               float
-0.18573550879955292 0.28885015845298767 -0.7936093211174011
-0.6524184942245483 0.94644957780838 -2.600348949432373
-2.4218058586120605 1.8824434280395508 -5.171970844268799
4.181295394897461 0.13869699835777283 -0.3810668885707855
11.50301456451416 0.3161707818508148 -0.8686721324920654
17.352664947509766 0.4012802243232727 -1.102508306503296
12.53068733215332 0.2188146710395813 -0.6011883616447449
4.296669960021973 0.09317483007907867 -0.2559957504272461
-3.3386158943176265 0.651272714138031 -1.78935706615448
-8.433838844299316 0.949082851409912 -2.60758376121521
-4.460309028625488 0.5789263248443604 -1.5905870199203491
1.6798052787780762 -0.10785083472728729 0.2963177263736725
2.5391921997070312 -0.13833199441432953 0.3800640404224396
3.0653398036956787 -0.16202865540981293 0.4451700747013092
3.2565045356750484 -0.15395668148994446 0.4229925274848938
3.0775253772735596 -0.11060950160026552 0.30389711260795593
2.839036464691162 -0.09355311095714569 0.2570350468158722
1.8863164186477661 0.0033550446387380366 -0.009217909537255764
0.5707114934921265 0.12660439312458038 -0.3478426933288574
-1.863977789878845 0.32435429096221924 -0.8911561369895934
-3.929407358169556 0.462135136127472 -1.269705891609192
-5.818001747131348 0.565833330154419 -1.5546141862869263
-7.506116390228272 0.6441349387168884 -1.7697461843490603
-8.579241752624512 0.6631205081939697 -1.8219085931777954
-9.895703315734863 0.7282765507698059 -2.0009233951568604
-11.045795440673828 0.7566360831260681 -2.078840494155884
-11.855328559875488 0.772268533706665 -2.1217904090881348
-13.221960067749022 0.8200788497924805 -2.253148078918457
-14.453637123107912 0.8502132296562194 -2.3359415531158447
-14.544419288635254 0.8347317576408386 -2.2934067249298096
-15.327865600585938 0.8293874263763428 -2.2787232398986816
-15.723143577575682 0.8149038553237915 -2.2389299869537354
-15.913240432739256 0.763007402420044 -2.0963456630706787
-16.0537109375 0.7346811294555664 -2.018519878387451
-15.925559997558592 0.7120257616043091 -1.9562747478485107
-15.712686538696289 0.6792834401130676 -1.866315960884094
-15.350165367126465 0.6125239729881287 -1.6828957796096802
-14.998993873596191 0.5802690386772156 -1.5942761898040771
-14.331148147583006 0.5521211624145508 -1.5169403553009033
-13.748782157897951 0.5173852443695068 -1.421504259109497
-13.062849044799806 0.4902334213256836 -1.34690523147583
-11.698262214660645 0.46667546033859253 -1.2821803092956543
-9.702340126037598 0.4624028205871582 -1.2704412937164307
-8.176827430725098 0.4453832507133484 -1.2236803770065308
-6.7030625343322745 0.47207397222518915 -1.2970125675201416
-5.511838436126709 0.4817268252372742 -1.323533535003662
-4.3267316818237305 0.4672950208187103 -1.28388249874115
-3.2377567291259766 0.4626536369323731 -1.2711304426193237
-2.156852960586548 0.44803708791732794 -1.2309718132019043
-1.1298002004623413 0.4292421340942383 -1.1793330907821655