# vtk DataFile Version 4.0
 
ASCII
DATASET UNSTRUCTURED_GRID
POINTS 51 float
0.0034458015579730272 0.0014345935778692365 0.007162618450820447
0.00369006278924644 -0.0010180081008002162 0.010672157630324364
0.0038282745517790313 -0.00276714819483459 0.014356879517436028
0.0037079283501952887 -0.004153081215918064 0.018092939630150795
0.003376203589141369 -0.00526252668350935 0.021848777309060097
0.0030025020241737366 -0.0063329110853374004 0.025537975132465366
0.002778564812615514 -0.00771721312776208 0.029032059013843536
0.0027836053632199764 -0.009225528687238693 0.03240014612674713
0.0029529223684221506 -0.010545284487307072 0.03575601056218147
0.003183003049343825 -0.011934502981603146 0.03900573402643204
0.0033991164527833466 -0.01330520212650299 0.042181339114904404
0.0035584971774369474 -0.014536923728883266 0.04532667249441147
0.0036438601091504097 -0.015709228813648224 0.04841277375817299
0.003657505614683032 -0.01690615527331829 0.05140905827283859
0.003614672925323248 -0.018121331930160522 0.054317843168973916
0.0035364592913538218 -0.01930186152458191 0.05715838074684143
0.003444118425250053 -0.020398154854774475 0.05994872376322747
0.0033548057544976473 -0.02139800228178501 0.06269330531358719
0.0032793087884783745 -0.022333284839987755 0.0653805360198021
0.0032226084731519227 -0.023250650614500046 0.06799343228340149
0.003185397945344448 -0.024180585518479347 0.07052089273929596
0.0031655679922550917 -0.025123082101345062 0.0729629248380661
0.0031594964675605297 -0.026058193296194077 0.07532679289579391
0.0031630429439246655 -0.026962710544466972 0.07762093096971512
0.003172241384163499 -0.02781899832189083 0.07985177636146545
0.0031837469432502985 -0.028616368770599365 0.08202320337295532
0.003195086726918816 -0.02935066632926464 0.0841367244720459
0.0032047536224126816 -0.03002355992794037 0.08619174361228943
0.0032121820840984583 -0.030641619116067886 0.0881858617067337
0.003217642894014716 -0.031215151771903038 0.09011533111333847
0.0032219537533819675 -0.03175577521324158 0.09197592735290527
0.0032260718289762735 -0.032273124903440475 0.09376412630081177
0.003230798291042447 -0.03277278691530228 0.09547790884971619
0.0032366192899644375 -0.033255498856306076 0.09711700677871704
0.0032436484470963474 -0.0337173156440258 0.09868285804986954
0.003251639194786548 -0.03415042161941528 0.1001782938838005
0.0032600469421595335 -0.03454430773854256 0.10160715132951736
0.003268117550760508 -0.03488795831799507 0.10297343134880065
0.0032749890815466647 -0.035175103694200516 0.10427942872047426
0.0032797926105558872 -0.03540855273604393 0.10552410781383514
0.003281744895502925 -0.035600610077381134 0.10670299082994461
0.0032802252098917965 -0.03577079251408577 0.10780898481607437
0.0032748340163379903 -0.03594278544187546 0.10883346199989317
0.0032654285896569495 -0.03614536300301552 0.10976595431566238
0.003252137918025255 -0.036413561552762985 0.11059369891881944
0.0032353585120290518 -0.03678305447101593 0.11130371689796448
0.0032157283276319504 -0.037281230092048645 0.11188604682683945
0.0031940888147801156 -0.03791896253824234 0.11233672499656677
0.003171431832015514 -0.038685400038957596 0.11265970021486281
0.003148839809000492 -0.039546795189380646 0.11286725848913193
0.00312742218375206 -0.0404493473470211 0.1129789724946022

CELLS 50 150
2 0 1
2 1 2
2 2 3
2 3 4
2 4 5
2 5 6
2 6 7
2 7 8
2 8 9
2 9 10
2 10 11
2 11 12
2 12 13
2 13 14
2 14 15
2 15 16
2 16 17
2 17 18
2 18 19
2 19 20
2 20 21
2 21 22
2 22 23
2 23 24
2 24 25
2 25 26
2 26 27
2 27 28
2 28 29
2 29 30
2 30 31
2 31 32
2 32 33
2 33 34
2 34 35
2 35 36
2 36 37
2 37 38
2 38 39
2 39 40
2 40 41
2 41 42
2 42 43
2 43 44
2 44 45
2 45 46
2 46 47
2 47 48
2 48 49
2 49 50

CELL_TYPES 50
4
4
4
4
4
4
4
4
4
4
4
4
4
4
4
4
4
4
4
4
4
4
4
4
4
4
4
4
4
4
4
4
4
4
4
4
4
4
4
4
4
4
4
4
4
4
4
4
4
4

POINT_DATA 51

SCALARS zone float
LOOKUP_TABLE default
1.0
1.0
1.0
1.0
1.0
1.0
1.0
1.0
1.0
1.0
1.0
1.0
1.0
1.0
1.0
1.0
1.0
1.0
1.0
1.0
1.0
1.0
1.0
1.0
1.0
1.0
1.0
1.0
1.0
1.0
1.0
1.0
1.0
1.0
1.0
1.0
1.0
1.0
1.0
1.0
1.0
1.0
1.0
1.0
1.0
1.0
1.0
1.0
1.0
1.0
1.0

VECTORS normals float
0.00012213067384436727 -0.0012263008393347263 0.0017547695897519588
0.00019123655511066318 -0.002100870944559574 0.003597130300477147
8.932776836445555e-6 -0.001567536499351263 0.0037103912327438593
-0.0002260355104226619 -0.00124768924433738 0.003745949128642678
-0.0003527131921146065 -0.0010899151675403118 0.003722517052665353
-0.00029881938826292753 -0.0012273432221263647 0.0035916403867304325
-0.0001094483450287953 -0.0014463089173659682 0.003431086428463459
8.717876335140318e-5 -0.0014140355633571744 0.003361976006999612
0.00019969894492533058 -0.0013544870307669044 0.003302793018519879
0.0002230970421805978 -0.0013799590524286032 0.0032126649748533964
0.0001877470058389008 -0.0013012104900553823 0.0031604699324816465
0.00012237193004693836 -0.0012020134599879384 0.00311571778729558
4.9504207709105685e-5 -0.001184615190140903 0.0030411933548748493
-1.4593665582651738e-5 -0.0012060514418408275 0.0029525342397391796
-6.0523194406414405e-5 -0.0011978535912930965 0.0028746610041707754
-8.52772718644701e-5 -0.0011384111130610108 0.0028154393658041954
-9.082671022042632e-5 -0.0010480704950168729 0.002767463680356741
-8.240483293775469e-5 -0.0009675651090219616 0.0027159082237631083
-6.609866250073537e-5 -0.0009263238171115518 0.0026500618550926447
-4.695540701504797e-5 -0.0009236510377377272 0.002570177661255002
-2.8520251362351697e-5 -0.0009362163254991174 0.0024847472086548805
-1.2950749805895612e-5 -0.00093880295753479 0.0024029489140957594
-1.2625629324247711e-6 -0.000919813523069024 0.002329003531485796
6.37255334368092e-6 -0.0008804034441709518 0.0022624905686825514
1.0352104254707228e-5 -0.0008268294623121619 0.0022011329419910908
1.1422682291595265e-5 -0.0007658335380256176 0.0021424766164273024
1.050324772222666e-5 -0.0007035949965938926 0.0020842726808041334
8.547682227799669e-6 -0.0006454762769863009 0.00202456908300519
6.444628070312319e-6 -0.0005957962712273002 0.001961794216185808
4.885740509052994e-6 -0.0005570774665102363 0.0018950296798720956
4.214472937746905e-6 -0.0005289872642606497 0.0018243967788293956
4.422250640345737e-6 -0.0005085071315988898 0.0017509938916191457
5.273810074868379e-6 -0.0004911859286949039 0.001676441403105855
6.425153969757957e-6 -0.00047226375318132335 0.001602471456862986
7.509945589845301e-6 -0.0004474619345273823 0.0015306416898965836
8.1992238847306e-6 -0.000413496745750308 0.001462146989069879
8.239160706580151e-6 -0.00036876919330097735 0.001397569547407329
7.471068784070667e-6 -0.0003153964935336262 0.0013361385790631175
5.837506250827573e-6 -0.0002602954627946019 0.0012753367191180587
3.3778785564209097e-6 -0.0002127540501533076 0.001211783499456942
2.163614567507466e-7 -0.0001811207621358335 0.0011424400145187974
-3.455363639659481e-6 -0.0001710876967990771 0.0010652347700670362
-7.398393336188747e-6 -0.0001872852153610438 0.0009784824214875698
-1.1348053703841288e-5 -0.00023538760433439163 0.0008801175863482058
-1.5035005162644666e-5 -0.0003188455302733928 0.0007688844343647361
-1.8204780644737184e-5 -0.00043383511365391314 0.0006461746525019407
-2.06348231586162e-5 -0.0005679546156898141 0.0005165021866559982
-2.214833330071997e-5 -0.0007020851480774581 0.00038682567537762225
-2.2624490156886168e-5 -0.0008139156270772219 0.00026526572764851153
-2.2004807760822587e-5 -0.0008819734794087707 0.0001596377114765346
-1.070886446541408e-5 -0.00045127680641599 5.5859331041574485e-5

CELL_DATA 50

VECTORS liftinglineloading               float
-0.2117520421743393 -0.07796185463666916 -0.03635421022772789
-0.2490495890378952 -0.1645933836698532 -0.07675115764141083
-0.2615404427051544 -0.26445472240448 -0.12331726402044295
-0.036703456193208694 -0.10472393035888672 -0.04883357137441635
0.29349321126937866 -0.05470972508192063 -0.025511564686894417
1.2829405069351196 -0.05179513245821 -0.024152467027306557
1.9656215906143188 0.09521603584289551 0.044399965554475784
0.32487866282463074 -0.10988282412290573 -0.05123920366168022
-2.2589612007141113 -0.8590018153190613 -0.40055912733078003
-5.356990814208984 -1.4660372734069824 -0.6836243867874146
-8.116623878479004 -1.9191553592681885 -0.894916832447052
-9.158226013183594 -2.2010979652404785 -1.0263888835906982
-10.520474433898926 -2.5379905700683594 -1.183484435081482
-11.469324111938477 -2.772601366043091 -1.292885184288025
-12.268906593322754 -2.957651138305664 -1.3791754245758057
-12.382335662841797 -2.9448275566101074 -1.3731956481933594
-12.362065315246582 -2.8690345287323 -1.3378527164459229
-12.169107437133789 -2.815939426422119 -1.3130940198898315
-12.445484161376953 -2.780014753341675 -1.296342134475708
-12.468013763427734 -2.685206174850464 -1.2521321773529053
-12.591712951660156 -2.6464290618896484 -1.2340501546859741
-13.024856567382814 -2.630582094192505 -1.2266606092453003
-14.099876403808596 -2.691019296646118 -1.25484299659729
-14.233042716979979 -2.535327434539795 -1.182242512702942
-15.78859806060791 -2.6730308532714844 -1.2464547157287598
-18.026405334472656 -2.748041868209839 -1.2814329862594604
-19.46247673034668 -2.7256357669830322 -1.2709848880767822
-22.36253547668457 -2.8023972511291504 -1.3067792654037476
-24.10560417175293 -2.7116599082946777 -1.264467716217041
-26.119575500488278 -2.5889203548431396 -1.2072334289550781
-27.142581939697266 -2.3382182121276855 -1.0903290510177612
-28.178415298461914 -2.2675681114196777 -1.0573843717575073
-28.86296272277832 -2.1304969787597656 -0.9934670925140381
-29.338720321655277 -1.7841786146163943 -0.8319761157035829
-29.746942520141598 -1.6666456460952759 -0.7771696448326111
-29.968191146850586 -1.529734492301941 -0.7133268713951111
-30.33534812927246 -1.433262586593628 -0.668341338634491
-30.959009170532223 -1.352890968322754 -0.6308634281158447
-31.881954193115234 -1.2836107015609741 -0.5985574722290039
-25.19475746154785 -1.2250022888183594 -0.5712279677391052
-22.32284164428711 -1.1261318922042847 -0.5251238942146301
-18.823732376098633 -1.1973011493682861 -0.5583106875419617
-15.26949119567871 -1.3966939449310303 -0.6512891054153442
-12.249168395996094 -1.4404354095458984 -0.6716861128807068
-9.609491348266602 -1.7200410366058347 -0.802068293094635
-7.647505760192871 -1.7926871776580813 -0.8359437584877013
-5.8227105140686035 -1.8210464715957644 -0.8491679430007933
-4.264472484588623 -1.8252892494201658 -0.8511463403701781
-2.830057144165039 -1.8168646097183225 -0.8472179174423219
-1.4710384607315063 -1.8047548532485962 -0.841571033000946