# vtk DataFile Version 4.0
 
ASCII
DATASET UNSTRUCTURED_GRID
POINTS 51 float
0.0034458015579730272 -0.006547258235514165 0.0032395331654697652
0.00369006278924644 -0.010571992956101894 0.001778837409801781
0.0038282745517790313 -0.014583870768547058 0.0010429738322272897
0.0037079283501952887 -0.018551334738731384 0.0006712292088195682
0.003376203589141369 -0.02246634103357792 0.0005716693704016507
0.0030025020241737366 -0.026306867599487308 0.0004925915272906423
0.002778564812615514 -0.030040176585316658 5.9794230764964595e-5
0.0027836053632199764 -0.03368388116359711 -0.0005254016141407192
0.0029529223684221506 -0.03726697340607643 -0.0009316258947364986
0.003183003049343825 -0.04076552018523216 -0.0014324182411655784
0.0033991164527833466 -0.04418768361210823 -0.00193450425285846
0.0035584971774369474 -0.04754463583230972 -0.002310184296220541
0.0036438601091504097 -0.05082899704575539 -0.002643801737576723
0.003657505614683032 -0.05403297394514083 -0.003024447476491332
0.003614672925323248 -0.05715715512633324 -0.003445370122790336
0.0035364592913538218 -0.060206446796655655 -0.0038504889234900475
0.003444118425250053 -0.06318545341491699 -0.004187232814729214
0.0033548057544976473 -0.06609530001878738 -0.004442661069333553
0.0032793087884783745 -0.06893303245306015 -0.0046505676582455635
0.0032226084731519227 -0.07169432193040848 -0.004860408138483763
0.003185397945344448 -0.07437635213136673 -0.005104502663016319
0.0031655679922550917 -0.07697910815477371 -0.00538283959031105
0.0031594964675605297 -0.07950445264577866 -0.005674272775650024
0.0031630429439246655 -0.08195453137159348 -0.005954201798886061
0.003172241384163499 -0.0843309760093689 -0.006203930359333754
0.0031837469432502985 -0.08663478493690491 -0.006412123795598745
0.003195086726918816 -0.08886634558439255 -0.006574379280209541
0.0032047536224126816 -0.09102550148963928 -0.006692465860396624
0.0032121820840984583 -0.09311164170503616 -0.006773349829018116
0.003217642894014716 -0.09512380510568619 -0.0068279565311968335
0.0032219537533819675 -0.0970609188079834 -0.006868601310998201
0.0032260718289762735 -0.09892208874225616 -0.006905504036694765
0.003230798291042447 -0.1007068008184433 -0.006944580469280481
0.0032366192899644375 -0.10241498798131944 -0.006986612454056739
0.0032436484470963474 -0.10404700040817261 -0.0070274234749376765
0.003251639194786548 -0.10560358315706253 -0.007058724295347929
0.0032600469421595335 -0.1070856973528862 -0.007069374900311232
0.003268117550760508 -0.1084943637251854 -0.007047696504741907
0.0032749890815466647 -0.10983017832040787 -0.006987038068473339
0.0032797926105558872 -0.11109286546707153 -0.006890385411679745
0.003281744895502925 -0.11228129267692566 -0.006770782172679901
0.0032802252098917965 -0.11339364945888519 -0.006648913491517305
0.0032748340163379903 -0.11442773044109344 -0.006549892015755177
0.0032654285896569495 -0.11538087576627731 -0.006504220888018608
0.003252137918025255 -0.11624982953071594 -0.006549043580889702
0.0032353585120290518 -0.1170312911272049 -0.006722179241478442
0.0032157283276319504 -0.11772271245718002 -0.007052663713693619
0.0031940888147801156 -0.11832309514284133 -0.007552022114396095
0.003171431832015514 -0.11883343011140822 -0.008208752609789371
0.003148839809000492 -0.11925686150789261 -0.008987074717879295
0.00312742218375206 -0.1195983737707138 -0.009829959832131863

CELLS 50 150
2 0 1
2 1 2
2 2 3
2 3 4
2 4 5
2 5 6
2 6 7
2 7 8
2 8 9
2 9 10
2 10 11
2 11 12
2 12 13
2 13 14
2 14 15
2 15 16
2 16 17
2 17 18
2 18 19
2 19 20
2 20 21
2 21 22
2 22 23
2 23 24
2 24 25
2 25 26
2 26 27
2 27 28
2 28 29
2 29 30
2 30 31
2 31 32
2 32 33
2 33 34
2 34 35
2 35 36
2 36 37
2 37 38
2 38 39
2 39 40
2 40 41
2 41 42
2 42 43
2 43 44
2 44 45
2 45 46
2 46 47
2 47 48
2 48 49
2 49 50

CELL_TYPES 50
4
4
4
4
4
4
4
4
4
4
4
4
4
4
4
4
4
4
4
4
4
4
4
4
4
4
4
4
4
4
4
4
4
4
4
4
4
4
4
4
4
4
4
4
4
4
4
4
4
4

POINT_DATA 51

SCALARS zone float
LOOKUP_TABLE default
1.0
1.0
1.0
1.0
1.0
1.0
1.0
1.0
1.0
1.0
1.0
1.0
1.0
1.0
1.0
1.0
1.0
1.0
1.0
1.0
1.0
1.0
1.0
1.0
1.0
1.0
1.0
1.0
1.0
1.0
1.0
1.0
1.0
1.0
1.0
1.0
1.0
1.0
1.0
1.0
1.0
1.0
1.0
1.0
1.0
1.0
1.0
1.0
1.0
1.0
1.0

VECTORS normals float
0.00012213067384436727 -0.002012367360293865 -0.0007303478778339922
0.00019123655511066318 -0.004018306266516447 -0.001098279608413577
8.932776836445555e-6 -0.003989670891314745 -0.0005538041004911065
-0.0002260355104226619 -0.003941234666854143 -0.00023565226001664996
-0.0003527131921146065 -0.0038777661975473166 -8.931882621254772e-5
-0.00029881938826292753 -0.003786918008700013 -0.00025593757163733244
-0.0001094483450287953 -0.003688507247716188 -0.0005089965998195112
8.717876335140318e-5 -0.003613398876041174 -0.0004957100609317422
0.00019969894492533058 -0.003540819976478815 -0.0004535083135124296
0.0002230970421805978 -0.0034603555686771874 -0.0005014392081648111
0.0001877470058389008 -0.0033895575907081366 -0.00043888299842365086
0.00012237193004693836 -0.0033206562511622906 -0.0003546487423591316
4.9504207709105685e-5 -0.0032441681250929832 -0.00035713164834305644
-1.4593665582651738e-5 -0.0031640781089663506 -0.0004007841343991458
-6.0523194406414405e-5 -0.003086736658588052 -0.0004130206943955273
-8.52772718644701e-5 -0.0030141479801386595 -0.0003709314332809299
-9.082671022042632e-5 -0.0029444252140820026 -0.00029608607292175293
-8.240483293775469e-5 -0.00287379021756351 -0.00023166733444668353
-6.609866250073537e-5 -0.0027995132841169834 -0.0002088736509904265
-4.695540701504797e-5 -0.0027216593734920025 -0.00022696744417771697
-2.8520251362351697e-5 -0.0026423921808600426 -0.000261215609498322
-1.2950749805895612e-5 -0.002564050490036607 -0.0002848851145245135
-1.2625629324247711e-6 -0.0024877097457647324 -0.000285681220702827
6.37255334368092e-6 -0.002413263311609626 -0.00026482873363420367
1.0352104254707228e-5 -0.0023401302751153708 -0.00022896080918144437
1.1422682291595265e-5 -0.002267685951665044 -0.00018522460595704615
1.050324772222666e-5 -0.002195356646552682 -0.00014017114881426096
8.547682227799669e-6 -0.002122645266354084 -9.948512888513505e-5
6.444628070312319e-6 -0.002049151109531522 -6.774527719244361e-5
4.885740509052994e-6 -0.001974640414118767 -4.7625740990042686e-5
4.214472937746905e-6 -0.0018991439137607815 -3.877382550854236e-5
4.422250640345737e-6 -0.0018229415873065589 -3.798960096901283e-5
5.273810074868379e-6 -0.0017464462434872985 -4.055420504300855e-5
6.425153969757957e-6 -0.001670099445618689 -4.1421611967962235e-5
7.509945589845301e-6 -0.001594297937117517 -3.605582605814561e-5
8.1992238847306e-6 -0.0015193463768810034 -2.0975701772840694e-5
8.239160706580151e-6 -0.001445392961613834 5.513920314115239e-6
7.471068784070667e-6 -0.0013722414150834084 4.11684850405436e-5
5.837506250827573e-6 -0.0012992501724511385 7.8655342804268e-5
3.3778785564209097e-6 -0.001225557760335505 0.00010812800610437989
2.163614567507466e-7 -0.001150389900431037 0.00012073601828888059
-3.455363639659481e-6 -0.0010732185328379273 0.00011044502025470139
-7.398393336188747e-6 -0.0009936144342646003 7.234626536956057e-5
-1.1348053703841288e-5 -0.0009110511164180933 4.242302225065942e-7
-1.5035005162644666e-5 -0.0008252086117863655 -0.00010897920583374797
-1.8204780644737184e-5 -0.0007364415796473622 -0.00025181021192111075
-2.06348231586162e-5 -0.0006459002615883946 -0.00041492143645882607
-2.214833330071997e-5 -0.0005553578957915306 -0.0005780442734248936
-2.2624490156886168e-5 -0.0004668838810175657 -0.0007175263017416
-2.2004807760822587e-5 -0.00038246973417699337 -0.0008106037275865674
-1.070886446541408e-5 -0.00017075501091312617 -0.0004214424698147922

CELL_DATA 50

VECTORS liftinglineloading               float
-0.2022007554769516 0.14708249270915985 -0.8341462016105652
-0.6681143641471863 0.473111629486084 -2.6831493377685547
-2.3347368240356445 0.9189334511756896 -5.211530685424805
3.6863176822662354 0.06756572425365448 -0.3831842839717865
10.463920593261719 0.1449807733297348 -0.8222268223762512
15.2435302734375 0.1864214837551117 -1.057248830795288
10.773314476013184 0.09168552607297897 -0.5199744701385498
3.8905010223388667 0.0009380823466926814 -0.005320128984749317
-2.987510919570923 0.27266621589660645 -1.5463670492172241
-6.7476840019226065 0.34652388095855713 -1.965234637260437
-0.5571539998054504 0.07148735970258713 -0.40542498230934143
1.5823280811309814 -0.04611583426594734 0.2615358829498291
2.229576587677002 -0.06251183152198792 0.3545221984386444
2.7075674533843994 -0.07316060364246368 0.4149143695831298
2.8913979530334473 -0.06877024471759796 0.3900154232978821
2.765536308288574 -0.0514373555779457 0.29171574115753174
2.4828639030456543 -0.038580674678087234 0.21880188584327698
1.370628833770752 0.01761910691857338 -0.09992291778326035
-0.10594739019870758 0.08825384825468063 -0.500512421131134
-2.564495086669922 0.18527871370315552 -1.0507677793502808
-4.9446702003479 0.25920477509498596 -1.4700233936309814
-7.095008373260497 0.3134322762489319 -1.7775627374649046
-9.026118278503418 0.3542282283306122 -2.0089282989501953
-10.02077579498291 0.35721835494041443 -2.025886058807373
-11.401386260986328 0.3887084424495697 -2.204475164413452
-12.595501899719238 0.40037432312965393 -2.2706356048583984
-13.420676231384277 0.40656706690788263 -2.3057563304901123
-14.81051254272461 0.4277547597885132 -2.425917863845825
-15.767548561096191 0.4358166754245758 -2.4716391563415527
-15.86833190917969 0.42756843566894537 -2.424860954284668
-17.072998046875 0.42393645644187933 -2.4042632579803467
-17.29340171813965 0.4164780378341675 -2.361964225769043
-17.446325302124023 0.39042267203330994 -2.2141971588134766
-17.47199058532715 0.36968177556991577 -2.096569538116455
-17.27467155456543 0.3575286269187927 -2.0276455879211426
-16.984079360961914 0.3402339816093445 -1.9295628070831299
-16.558290481567383 0.30736809968948364 -1.743170976638794
-16.05265998840332 0.2903164029121399 -1.6464661359786987
-15.326478004455566 0.2764376103878021 -1.5677556991577148
-14.675433158874512 0.2591482996940613 -1.469702959060669
-13.975995063781738 0.24455949664115906 -1.3869657516479492
-12.561553001403809 0.23346146941184998 -1.3240257501602173
-10.427863121032715 0.23374706506729126 -1.3256455659866333
-8.763461112976074 0.2255685180425644 -1.279262661933899
-7.1233577728271475 0.2432913184165955 -1.3797736167907715
-5.892191410064697 0.24907702207565308 -1.412585973739624
-4.622625827789307 0.24241137504577637 -1.3747832775115967
-3.4592766761779785 0.23997317254543304 -1.3609554767608643
-2.2911434173583984 0.23260270059108734 -1.3191554546356201
-1.2034451961517334 0.22326610982418063 -1.266205072402954