# vtk DataFile Version 4.0
 
ASCII
DATASET UNSTRUCTURED_GRID
POINTS 51 float
0.0034458015579730272 0.007289858534932136 0.00046811107313260436
0.00369006278924644 0.010045032948255539 0.003745478112250567
0.0038282745517790313 0.01315149012953043 0.006388693582266569
0.0037079283501952887 0.016401542350649834 0.008694365620613098
0.003376203589141369 0.01974225603044033 0.010738089680671692
0.0030025020241737366 0.02302871085703373 0.012726836837828161
0.002778564812615514 0.02604545280337334 0.014968304894864561
0.0027836053632199764 0.028908396139740944 0.01729695126414299
0.0029529223684221506 0.03180833160877228 0.0194402989000082
0.003183003049343825 0.03458776697516441 0.021623270586133003
0.0033991164527833466 0.03730040416121483 0.02376917190849781
0.0035584971774369474 0.040019772946834564 0.025772996246814728
0.0036438601091504097 0.042697302997112274 0.027704099193215374
0.003657505614683032 0.045281704515218735 0.02963573485612869
0.003614672925323248 0.04777686297893524 0.031562354415655136
0.0035364592913538218 0.05021506920456886 0.03343784436583519
0.003444118425250053 0.05262658745050431 0.0352189764380455
0.0033548057544976473 0.05501887574791908 0.036895107477903366
0.0032793087884783745 0.05737247318029404 0.03849402442574501
0.0032226084731519227 0.05965889990329742 0.04005640000104904
0.003185397945344448 0.06185955554246902 0.04160880297422409
0.0031655679922550917 0.06397444009780884 0.04315122961997986
0.0031594964675605297 0.06601573526859283 0.044666290283203125
0.0031630429439246655 0.06799760460853577 0.046133752912282944
0.003172241384163499 0.069930799305439 0.04753825068473816
0.0031837469432502985 0.07182186841964722 0.04887045547366142
0.003195086726918816 0.0736733227968216 0.050126753747463226
0.0032047536224126816 0.07548416405916214 0.05130859464406967
0.0032121820840984583 0.07725036889314651 0.05242171138525009
0.003217642894014716 0.07896564900875092 0.05347508564591408
0.0032219537533819675 0.08062291890382767 0.05447884276509285
0.0032260718289762735 0.0822162926197052 0.055441386997699744
0.003230798291042447 0.08374235779047012 0.05636758357286453
0.0032366192899644375 0.08520067483186722 0.05725807696580886
0.0032436484470963474 0.0865936353802681 0.058109428733587265
0.003251639194786548 0.08792602270841599 0.058914825320243835
0.0032600469421595335 0.08920424431562424 0.05966510623693467
0.003268117550760508 0.09043502807617188 0.06035066768527031
0.0032749890815466647 0.09162220358848572 0.060966040939092636
0.0032797926105558872 0.09276404976844788 0.06151368096470833
0.003281744895502925 0.09385306388139725 0.06200431659817696
0.0032802252098917965 0.09487732499837875 0.06245495006442069
0.0032748340163379903 0.09582237154245377 0.06288623809814453
0.0032654285896569495 0.09667065739631653 0.0633232593536377
0.003252137918025255 0.09740078449249268 0.06379655748605728
0.0032353585120290518 0.097990982234478 0.06433722376823425
0.0032157283276319504 0.098424531519413 0.06496914476156235
0.0031940888147801156 0.09869479387998581 0.06570179015398026
0.003171431832015514 0.0988083928823471 0.06652570515871048
0.003148839809000492 0.09878593683242798 0.06741146743297577
0.00312742218375206 0.09866024553775787 0.06831218302249908

CELLS 50 150
2 0 1
2 1 2
2 2 3
2 3 4
2 4 5
2 5 6
2 6 7
2 7 8
2 8 9
2 9 10
2 10 11
2 11 12
2 12 13
2 13 14
2 14 15
2 15 16
2 16 17
2 17 18
2 18 19
2 19 20
2 20 21
2 21 22
2 22 23
2 23 24
2 24 25
2 25 26
2 26 27
2 27 28
2 28 29
2 29 30
2 30 31
2 31 32
2 32 33
2 33 34
2 34 35
2 35 36
2 36 37
2 37 38
2 38 39
2 39 40
2 40 41
2 41 42
2 42 43
2 43 44
2 44 45
2 45 46
2 46 47
2 47 48
2 48 49
2 49 50

CELL_TYPES 50
4
4
4
4
4
4
4
4
4
4
4
4
4
4
4
4
4
4
4
4
4
4
4
4
4
4
4
4
4
4
4
4
4
4
4
4
4
4
4
4
4
4
4
4
4
4
4
4
4
4

POINT_DATA 51

SCALARS zone float
LOOKUP_TABLE default
1.0
1.0
1.0
1.0
1.0
1.0
1.0
1.0
1.0
1.0
1.0
1.0
1.0
1.0
1.0
1.0
1.0
1.0
1.0
1.0
1.0
1.0
1.0
1.0
1.0
1.0
1.0
1.0
1.0
1.0
1.0
1.0
1.0
1.0
1.0
1.0
1.0
1.0
1.0
1.0
1.0
1.0
1.0
1.0
1.0
1.0
1.0
1.0
1.0
1.0
1.0

VECTORS normals float
0.00012213067384436727 0.0013775872066617012 0.0016386834904551506
0.00019123655511066318 0.002930815564468503 0.002960291225463152
8.932776836445555e-6 0.00317825423553586 0.0024744439870119095
-0.0002260355104226619 0.0032953831832855936 0.002174698282033205
-0.0003527131921146065 0.0033135847188532357 0.002016235375776887
-0.00029881938826292753 0.003151598386466503 0.00211510737426579
-0.0001094483450287953 0.002939842641353607 0.0022850576788187027
8.717876335140318e-5 0.0028814401011914015 0.002235997002571821
0.00019969894492533058 0.002839685883373022 0.0021631596609950066
0.0002230970421805978 0.0027460362762212753 0.0021644369699060917
0.0001877470058389008 0.0027160015888512135 0.0020748625975102186
0.00012237193004693836 0.0026984482537955046 0.001967462943866849
4.9504207709105685e-5 0.0026309662498533726 0.0019313691882416606
-1.4593665582651738e-5 0.0025397799909114838 0.001929128309711814
-6.0523194406414405e-5 0.0024666818790137768 0.0019010547548532486
-8.52772718644701e-5 0.0024248629342764616 0.001828310079872608
-9.082671022042632e-5 0.002401903970167041 0.0017286306247115135
-8.240483293775469e-5 0.0023729417007416487 0.0016375248087570071
-6.609866250073537e-5 0.002320012776181102 0.0015806466108188033
-4.695540701504797e-5 0.002243542578071356 0.00155738927423954
-2.8520251362351697e-5 0.0021577710285782814 0.0015474153915420175
-1.2950749805895612e-5 0.002078090328723192 0.0015287429559975863
-1.2625629324247711e-6 0.002011579228565097 0.00149126211181283
6.37255334368092e-6 0.001957532949745655 0.0014359800843521953
1.0352104254707228e-5 0.001912131905555725 0.0013683510478585958
1.1422682291595265e-5 0.0018712612800300121 0.0012942521134391427
1.050324772222666e-5 0.0018311489839106798 0.0012190700508654118
8.547682227799669e-6 0.0017885221168398857 0.00114747928455472
6.444628070312319e-6 0.001740744337439537 0.0010832446860149503
4.885740509052994e-6 0.001686275936663151 0.0010285653406754136
4.214472937746905e-6 0.0016253199428319929 0.0009831510251387954
4.422250640345737e-6 0.0015597189776599407 0.0009443707531318069
5.273810074868379e-6 0.001492189709097147 0.0009083441109396517
6.425153969757957e-6 0.0014256377471610904 0.0008709218818694353
7.509945589845301e-6 0.0013626746367663145 0.0008283742354251445
8.1992238847306e-6 0.0013053047005087137 0.0007778386934660375
8.239160706580151e-6 0.001254503964446485 0.0007179212989285588
7.471068784070667e-6 0.0012089801020920277 0.0006504677585326135
5.837506250827573e-6 0.0011645113117992878 0.0005815075128339231
3.3778785564209097e-6 0.0011154281673952937 0.0005191372474655509
2.163614567507466e-7 0.001056634820997715 0.00047063446254469454
-3.455363639659481e-6 0.0009846570901572704 0.00044096107012592256
-7.398393336188747e-6 0.0008966684690676628 0.0004341535095591098
-1.1348053703841288e-5 0.0007892055436968803 0.00045515815145336097
-1.5035005162644666e-5 0.0006601620116271079 0.0005069830804131925
-1.8204780644737184e-5 0.0005118720000609756 0.0005862948601134121
-2.06348231586162e-5 0.00035190529888495803 0.0006822826690040529
-2.214833330071997e-5 0.00019193190382793546 0.0007782800239510834
-2.2624490156886168e-5 4.5570137444883585e-5 0.000854837941005826
-2.2004807760822587e-5 -7.407335215248168e-5 0.0008932382916100322
-1.070886446541408e-5 -6.284306437009946e-5 0.0004503573873080313

CELL_DATA 50

VECTORS liftinglineloading               float
-0.028772661462426186 -0.19446153938770294 0.23175023496150968
-0.23961000144481656 -0.7643281817436218 0.9108908772468566
-1.1796776056289673 -1.7213785648345945 2.0514590740203857
2.7157609462738037 -0.1220581978559494 0.14546328783035278
8.625458717346191 -0.32830166816711426 0.3912546932697296
14.964562416076658 -0.6240531802177429 0.7437176704406738
11.868708610534668 -0.5682234764099121 0.6771823763847351
1.7138550281524658 -1.3001158237457275 1.5494177341461182
-10.341270446777344 -3.7140078544616695 4.426182270050049
-21.844581604003906 -5.318306922912598 6.338111400604248
-29.592096328735348 -5.773681640625 6.880805969238281
-31.855052947998047 -5.483471393585205 6.534946441650391
-33.18354415893555 -5.1619768142700195 6.151803970336914
-34.33263397216797 -4.982662200927734 5.938105583190918
-34.501277923583984 -5.023158073425293 5.9863667488098145
-33.965824127197266 -4.705870151519775 5.6082377433776855
-33.82133102416992 -3.8306152820587163 4.565149307250977
-33.408504486083984 -2.7159554958343506 3.2367496490478516
-30.64111328125 -2.4188809394836426 2.8827099800109863
-26.15496826171875 -2.617262363433838 3.1191318035125732
-19.826400756835938 -2.435441493988037 2.9024462699890137
-13.592936515808104 -1.997378468513489 2.380383014678955
-8.732658386230469 -1.59034264087677 1.895296573638916
-6.4571852684021 -1.376064658164978 1.639930009841919
-5.476642608642578 -1.33203125 1.587453007698059
-4.852916717529297 -1.2891170978546143 1.5363099575042725
-4.689104080200195 -1.278803825378418 1.5240190029144287
-4.878036022186279 -1.3165011405944824 1.568945050239563
-6.131442546844482 -1.4369871616363525 1.7125345468521118
-5.916514873504639 -1.415291666984558 1.6866788864135742
-7.741570472717284 -1.550724744796753 1.8480817079544067
-8.26844596862793 -1.5113691091537476 1.8011795282363894
-8.951775550842285 -1.4580610990524292 1.7376495599746706
-9.455872535705566 -1.497121810913086 1.7842001914978025
-9.606040954589844 -1.4716604948043823 1.7538566589355467
-9.686153411865234 -1.4175375699996948 1.6893554925918581
-9.695560455322266 -1.2726802825927734 1.516721248626709
-10.10764217376709 -1.2325897216796875 1.4689432382583618
-9.69435977935791 -1.1675148010253906 1.3913899660110474
-9.368135452270508 -1.0904487371444702 1.2995461225509644
-8.829556465148926 -1.044981837272644 1.2453609704971313
-7.6754865646362305 -0.9906811118125916 1.1806477308273315
-6.435259819030762 -0.9520526528358458 1.1346122026443481
-5.560087203979492 -0.9193845987319946 1.0956798791885376
-4.933363914489746 -0.8973304629325867 1.069396734237671
-3.9491922855377197 -0.8979981541633605 1.070192575454712
-3.1279914379119873 -0.8591902256011963 1.0239430665969849
-2.3550891876220703 -0.8515759110450744 1.0148686170578003
-1.6456868648529055 -0.8230472803115845 0.9808695912361145
-0.8430461883544922 -0.7811700701713562 0.9309622645378113