# vtk DataFile Version 4.0
 
ASCII
DATASET UNSTRUCTURED_GRID
POINTS 51 float
0.0034458015579730272 -0.00640902342274785 -0.0035050800070166588
0.00369006278924644 -0.007520984392613172 -0.007639770396053791
0.0038282745517790313 -0.009219318628311157 -0.011348182335495949
0.0037079283501952887 -0.011190447025001049 -0.014811362139880657
0.003376203589141369 -0.013354447670280935 -0.018075453117489815
0.0030025020241737366 -0.015492506325244902 -0.021266784518957138
0.002778564812615514 -0.01727931760251522 -0.024573175236582756
0.0027836053632199764 -0.0188898965716362 -0.027893578633666035
0.0029529223684221506 -0.020612314343452454 -0.031061677262187
0.003183003049343825 -0.022208774462342262 -0.03421476110816002
0.0033991164527833466 -0.023760361596941948 -0.03730601817369461
0.0035584971774369474 -0.025378091260790825 -0.04027135297656059
0.0036438601091504097 -0.026988640427589417 -0.043153099715709686
0.003657505614683032 -0.02851455844938755 -0.04599597305059433
0.003614672925323248 -0.02996171452105045 -0.04879658296704292
0.0035364592913538218 -0.031378861516714096 -0.05152678489685059
0.003444118425250053 -0.03281170502305031 -0.054160188883543015
0.0033548057544976473 -0.034271489828825 -0.05669030174612999
0.0032793087884783745 -0.03572883829474449 -0.05913408845663071
0.0032226084731519227 -0.03714076057076454 -0.06151636689901351
0.003185397945344448 -0.03847915679216385 -0.06385336071252823
0.0031655679922550917 -0.03974403813481331 -0.06614506244659424
0.0031594964675605297 -0.04095378890633583 -0.06838086247444153
0.0031630429439246655 -0.04212978854775429 -0.0705484077334404
0.003172241384163499 -0.043288297951221466 -0.07263831794261932
0.0031837469432502985 -0.0444391705095768 -0.07464490830898285
0.003195086726918816 -0.045586228370666504 -0.07656595855951309
0.0032047536224126816 -0.04672793671488762 -0.07840236276388168
0.0032121820840984583 -0.047858238220214844 -0.08015762269496918
0.003217642894014716 -0.0489676371216774 -0.08183721452951431
0.0032219537533819675 -0.050045426934957504 -0.08344731479883194
0.0032260718289762735 -0.05108272284269333 -0.08499306440353394
0.003230798291042447 -0.052074380218982703 -0.08647742867469788
0.0032366192899644375 -0.053019724786281586 -0.0879008024930954
0.0032436484470963474 -0.05392238125205041 -0.08926107734441757
0.003251639194786548 -0.05478955805301666 -0.09055410325527191
0.0032600469421595335 -0.05563093721866608 -0.09177429229021072
0.003268117550760508 -0.05645667761564254 -0.09291577339172363
0.0032749890815466647 -0.05727255344390869 -0.09397521615028381
0.0032797926105558872 -0.05807597562670707 -0.09495411068201065
0.003281744895502925 -0.05885560438036919 -0.09585901349782944
0.0032802252098917965 -0.05959345400333405 -0.09670029580593109
0.0032748340163379903 -0.060267690569162376 -0.0974905714392662
0.0032654285896569495 -0.060851804912090295 -0.09824514389038086
0.003252137918025255 -0.06131350249052047 -0.09898266196250916
0.0032353585120290518 -0.06161990389227867 -0.09972210228443146
0.0032157283276319504 -0.06174577027559281 -0.10047804564237595
0.0031940888147801156 -0.06168108433485031 -0.10125626623630524
0.003171431832015514 -0.06143584102392197 -0.1020509973168373
0.003148839809000492 -0.061041142791509635 -0.10284427553415298
0.00312742218375206 -0.06054657697677613 -0.10360748320817949

CELLS 50 150
2 0 1
2 1 2
2 2 3
2 3 4
2 4 5
2 5 6
2 6 7
2 7 8
2 8 9
2 9 10
2 10 11
2 11 12
2 12 13
2 13 14
2 14 15
2 15 16
2 16 17
2 17 18
2 18 19
2 19 20
2 20 21
2 21 22
2 22 23
2 23 24
2 24 25
2 25 26
2 26 27
2 27 28
2 28 29
2 29 30
2 30 31
2 31 32
2 32 33
2 33 34
2 34 35
2 35 36
2 36 37
2 37 38
2 38 39
2 39 40
2 40 41
2 41 42
2 42 43
2 43 44
2 44 45
2 45 46
2 46 47
2 47 48
2 48 49
2 49 50

CELL_TYPES 50
4
4
4
4
4
4
4
4
4
4
4
4
4
4
4
4
4
4
4
4
4
4
4
4
4
4
4
4
4
4
4
4
4
4
4
4
4
4
4
4
4
4
4
4
4
4
4
4
4
4

POINT_DATA 51

SCALARS zone float
LOOKUP_TABLE default
1.0
1.0
1.0
1.0
1.0
1.0
1.0
1.0
1.0
1.0
1.0
1.0
1.0
1.0
1.0
1.0
1.0
1.0
1.0
1.0
1.0
1.0
1.0
1.0
1.0
1.0
1.0
1.0
1.0
1.0
1.0
1.0
1.0
1.0
1.0
1.0
1.0
1.0
1.0
1.0
1.0
1.0
1.0
1.0
1.0
1.0
1.0
1.0
1.0
1.0
1.0

VECTORS normals float
0.00012213067384436727 -0.0005559804849326611 -0.002067345194518566
0.00019123655511066318 -0.001405147835612297 -0.003921551164239645
8.932776836445555e-6 -0.0018347314326092599 -0.0035857961047440763
-0.0002260355104226619 -0.0020675642881542444 -0.0033636349253356457
-0.0003527131921146065 -0.0021510296501219273 -0.0032277114223688845
-0.00029881938826292753 -0.0019624351989477873 -0.003248861525207758
-0.0001094483450287953 -0.0016986952396109698 -0.003313396824523807
8.717876335140318e-5 -0.0016664984868839383 -0.0032442505471408367
0.00019969894492533058 -0.0016594387125223875 -0.0031605917029082775
0.0002230970421805978 -0.0015740235103294253 -0.003122171154245734
0.0001877470058389008 -0.0015846585156396031 -0.0030282961670309305
0.00012237193004693836 -0.001614138949662447 -0.002923540538176894
4.9504207709105685e-5 -0.0015682332450523973 -0.0028623093385249376
-1.4593665582651738e-5 -0.0014865375123918056 -0.0028217413928359747
-6.0523194406414405e-5 -0.0014321525814011693 -0.0027654054574668407
-8.52772718644701e-5 -0.0014249950181692839 -0.0026818029582500458
-9.082671022042632e-5 -0.0014463133411481977 -0.0025817598216235638
-8.240483293775469e-5 -0.0014585675671696663 -0.00248695001937449
-6.609866250073537e-5 -0.001434635603800416 -0.0024130321107804775
-4.695540701504797e-5 -0.0013751588994637132 -0.002359636127948761
-2.8520251362351697e-5 -0.0013016385491937399 -0.002314348006621003
-1.2950749805895612e-5 -0.001237314660102129 -0.002263750648126006
-1.2625629324247711e-6 -0.0011928754393011332 -0.0022016726434230804
6.37255334368092e-6 -0.0011672559194266796 -0.0021287291310727596
1.0352104254707228e-5 -0.0011546899331733584 -0.0020482491236180067
1.1422682291595265e-5 -0.0011489640455693007 -0.0019638200756162405
1.050324772222666e-5 -0.0011443833354860544 -0.0018787296721711755
8.547682227799669e-6 -0.0011360058560967445 -0.0017958314856514335
6.444628070312319e-6 -0.0011198511347174644 -0.0017174234380945563
4.885740509052994e-6 -0.001093594473786652 -0.0016448477981612084
4.214472937746905e-6 -0.0010575425112619996 -0.0015779273817315698
4.422250640345737e-6 -0.0010144771076738834 -0.0015150562394410372
5.273810074868379e-6 -0.0009685003897175193 -0.0014538660179823637
6.425153969757957e-6 -0.0009239991195499897 -0.0013918238691985607
7.509945589845301e-6 -0.0008849165169522166 -0.0013266531750559807
8.1992238847306e-6 -0.0008542789728380739 -0.0012566068908199668
8.239160706580151e-6 -0.000833560072351247 -0.0011808339040726423
7.471068784070667e-6 -0.0008208085782825947 -0.001100461115129292
5.837506250827573e-6 -0.0008096499368548392 -0.001019168528728187
3.3778785564209097e-6 -0.0007915243040770292 -0.0009418984409421682
2.163614567507466e-7 -0.0007587376749143004 -0.0008730928529985249
-3.455363639659481e-6 -0.0007060441421344876 -0.0008157805423252283
-7.398393336188747e-6 -0.0006291763857007027 -0.0007724251481704414
-1.1348053703841288e-5 -0.0005229049711488187 -0.000746046076528728
-1.5035005162644666e-5 -0.0003840496647171676 -0.0007384791970252991
-1.8204780644737184e-5 -0.00021613467833958566 -0.0007476900354959071
-2.06348231586162e-5 -3.0589410016546026e-5 -0.000767079705838114
-2.214833330071997e-5 0.0001549659646116197 -0.0007864751387387514
-2.2624490156886168e-5 0.00031996957841329277 -0.0007940050563775002
-2.2004807760822587e-5 0.0004446320526767522 -0.0007782440516166389
-1.070886446541408e-5 0.0002472844207659364 -0.0003816037788055837

CELL_DATA 50

VECTORS liftinglineloading               float
-0.5170277953147888 0.6866245269775391 -0.3201782703399658
-0.8470488786697387 1.4280469417572021 -0.6659092307090759
-1.360133171081543 2.1914477348327637 -1.0218888521194458
0.4203042089939117 0.20384845137596128 -0.09505609422922134
1.8858515024185178 0.39062392711639404 -0.1821509301662445
3.226803779602051 0.5363544225692749 -0.25010618567466736
2.18748140335083 0.28170764446258545 -0.1313624233007431
0.10752261430025102 0.611562192440033 -0.285176157951355
-2.1242992877960205 1.1066533327102661 -0.5160409212112427
-4.69779634475708 1.5571624040603638 -0.7261167168617249
-6.798583507537843 1.9332150220870972 -0.9014729261398315
-7.512928009033204 2.075906276702881 -0.9680109620094299
-8.869599342346191 1.9748997688293457 -0.9209108948707581
-9.93586254119873 1.8292088508605957 -0.8529741168022156
-9.671331405639648 1.9967188835144043 -0.9310852885246277
-8.773548126220703 2.0434513092041016 -0.9528769850730897
-7.799187660217285 1.9073108434677126 -0.8893936276435852
-7.090306758880615 1.8128005266189573 -0.8453227281570435
-7.12623691558838 1.834136724472046 -0.8552719950675965
-7.39307165145874 1.8334221839904787 -0.854938805103302
-7.797961711883545 1.8862010240554812 -0.8795499801635742
-8.215543746948242 1.93630051612854 -0.9029117822647095
-8.834129333496094 1.998314619064331 -0.9318293929100038
-8.851607322692871 1.9205391407012937 -0.8955621123313903
-9.264572143554688 2.0062596797943115 -0.9355342984199524
-9.507735252380371 2.005655527114868 -0.9352525472640991
-9.480944633483887 1.9814882278442383 -0.9239830970764159
-9.927719116210938 2.0532476902008057 -0.9574450850486755
-10.95573616027832 2.16385555267334 -1.0090223550796509
-10.273361206054688 2.0769991874694824 -0.9685206413269044
-11.219618797302246 2.130363702774048 -0.9934049248695374
-11.556938171386719 2.075113534927368 -0.9676413536071777
-12.071518898010254 1.9654629230499268 -0.9165104031562805
-12.826338768005371 1.9655941724777222 -0.9165716171264648
-13.52076530456543 1.92807936668396 -0.8990781903266908
-13.586021423339846 1.8444527387619019 -0.8600824475288392
-13.505412101745605 1.6575466394424438 -0.7729267477989197
-13.580837249755858 1.5773106813430786 -0.7355120778083801
-13.168367385864256 1.4973385334014893 -0.698220431804657
-12.82661247253418 1.4009336233139038 -0.6532660722732544
-12.346087455749512 1.329951524734497 -0.620166540145874
-11.143831253051758 1.2620548009872437 -0.5885058045387268
-9.339641571044922 1.241800308227539 -0.5790610313415527
-7.964122295379639 1.1953445672988892 -0.5573983192443848
-6.615837574005126 1.2584539651870728 -0.586826741695404
-5.475390911102295 1.2857717275619507 -0.5995652079582214
-4.338123798370361 1.2501732110977173 -0.5829653739929199
-3.2786295413970947 1.242168664932251 -0.5792327523231506
-2.204721212387085 1.20765221118927 -0.5631374716758728
-1.1671947240829468 1.1624081134796143 -0.5420398116111755