# vtk DataFile Version 4.0
 
ASCII
DATASET UNSTRUCTURED_GRID
POINTS 51 float
0.0034458015579730272 -0.0037978368345648046 -0.006240000016987324
0.00369006278924644 -0.002693478250876069 -0.01037672720849514
0.0038282745517790313 -0.002310073236003518 -0.014437473379075527
0.0037079283501952887 -0.00228553032502532 -0.018422240391373634
0.003376203589141369 -0.0025275645311921835 -0.022331025451421738
0.0030025020241737366 -0.002783511532470584 -0.026163829490542415
0.002778564812615514 -0.002677740529179573 -0.029920652508735657
0.0027836053632199764 -0.0024123415350914 -0.03360149636864662
0.0029529223684221506 -0.002319950144737959 -0.03720635920763016
0.003183003049343825 -0.0021259819623082876 -0.040735241025686264
0.0033991164527833466 -0.0019240676192566755 -0.04418814182281494
0.0035584971774369474 -0.0018423949368298054 -0.04756506159901619
0.0036438601091504097 -0.0017962977290153503 -0.05086600035429001
0.003657505614683032 -0.0016963453963398933 -0.054090958088636405
0.003614672925323248 -0.0015493148239329457 -0.05723993852734566
0.0035364592913538218 -0.0014115009689703584 -0.06031293421983719
0.003444118425250053 -0.0013356755953282118 -0.06330995261669159
0.0033548057544976473 -0.0013348293723538518 -0.06623098999261856
0.0032793087884783745 -0.001375038642436266 -0.0690760463476181
0.0032226084731519227 -0.0014066590229049325 -0.07184511423110962
0.003185397945344448 -0.0013972476590424776 -0.0745382085442543
0.0031655679922550917 -0.0013468151446431875 -0.07715532183647156
0.0031594964675605297 -0.001276588998734951 -0.07969645410776138
0.0031630429439246655 -0.0012112633557990193 -0.08216160535812378
0.003172241384163499 -0.001169606577605009 -0.08455078303813934
0.0031837469432502985 -0.0011629958171397448 -0.08686397224664688
0.003195086726918816 -0.0011958506656810641 -0.08910118043422699
0.0032047536224126816 -0.001266396138817072 -0.09126240760087967
0.0032121820840984583 -0.0013676390517503023 -0.09334765374660492
0.003217642894014716 -0.001488611800596118 -0.09535692632198334
0.0032219537533819675 -0.0016169524751603603 -0.09729021042585373
0.0032260718289762735 -0.001742401858791709 -0.09914752095937729
0.003230798291042447 -0.0018590220715850592 -0.10092884302139282
0.0032366192899644375 -0.0019660277757793665 -0.10263418406248094
0.0032436484470963474 -0.002067611552774906 -0.10426355153322218
0.003251639194786548 -0.002172095002606511 -0.10581693798303606
0.0032600469421595335 -0.002290659351274371 -0.10729433596134187
0.003268117550760508 -0.002435029484331608 -0.10869576036930083
0.0032749890815466647 -0.002611880423501134 -0.1100212037563324
0.0032797926105558872 -0.002818215638399124 -0.11127065867185593
0.003281744895502925 -0.0030409423634409904 -0.11244414001703264
0.0032802252098917965 -0.0032592948991805315 -0.11354164034128189
0.0032748340163379903 -0.0034480660688132048 -0.11456315964460372
0.0032654285896569495 -0.0035766353830695152 -0.11550869792699814
0.003252137918025255 -0.0036077180411666627 -0.11637825518846512
0.0032353585120290518 -0.003503349609673023 -0.11717183142900467
0.0032157283276319504 -0.0032343843486160036 -0.11788942664861679
0.0031940888147801156 -0.0027892524376511574 -0.11853104084730147
0.003171431832015514 -0.0021795001812279224 -0.11909667402505875
0.003148839809000492 -0.0014410438016057014 -0.11958632618188858
0.00312742218375206 -0.0006311308243311942 -0.11999999731779097

CELLS 50 150
2 0 1
2 1 2
2 2 3
2 3 4
2 4 5
2 5 6
2 6 7
2 7 8
2 8 9
2 9 10
2 10 11
2 11 12
2 12 13
2 13 14
2 14 15
2 15 16
2 16 17
2 17 18
2 18 19
2 19 20
2 20 21
2 21 22
2 22 23
2 23 24
2 24 25
2 25 26
2 26 27
2 27 28
2 28 29
2 29 30
2 30 31
2 31 32
2 32 33
2 33 34
2 34 35
2 35 36
2 36 37
2 37 38
2 38 39
2 39 40
2 40 41
2 41 42
2 42 43
2 43 44
2 44 45
2 45 46
2 46 47
2 47 48
2 48 49
2 49 50

CELL_TYPES 50
4
4
4
4
4
4
4
4
4
4
4
4
4
4
4
4
4
4
4
4
4
4
4
4
4
4
4
4
4
4
4
4
4
4
4
4
4
4
4
4
4
4
4
4
4
4
4
4
4
4

POINT_DATA 51

SCALARS zone float
LOOKUP_TABLE default
1.0
1.0
1.0
1.0
1.0
1.0
1.0
1.0
1.0
1.0
1.0
1.0
1.0
1.0
1.0
1.0
1.0
1.0
1.0
1.0
1.0
1.0
1.0
1.0
1.0
1.0
1.0
1.0
1.0
1.0
1.0
1.0
1.0
1.0
1.0
1.0
1.0
1.0
1.0
1.0
1.0
1.0
1.0
1.0
1.0
1.0
1.0
1.0
1.0
1.0
1.0

VECTORS normals float
0.00012213067384436727 0.000552179291844368 -0.002068363595753908
0.00019123655511066318 0.0007438818574883044 -0.004098737146705389
8.932776836445555e-6 0.000203973992029205 -0.00402275612577796
-0.0002260355104226619 -0.00010874569852603601 -0.003946775570511818
-0.0003527131921146065 -0.00024899066193029284 -0.0038707947824150324
-0.00029881938826292753 -7.50880062696524e-5 -0.003794813994318247
-0.0001094483450287953 0.00018558510055299848 -0.003718833439052105
8.717876335140318e-5 0.00017889527953229845 -0.0036428526509553194
0.00019969894492533058 0.00014317977183964103 -0.003566872095689177
0.0002230970421805978 0.00019794120453298092 -0.0034908913075923915
0.0001877470058389008 0.0001417934981873259 -0.003414910519495607
0.00012237193004693836 6.388493056874722e-5 -0.003338929964229465
4.9504207709105685e-5 7.302477752091363e-5 -0.003262949176132679
-1.4593665582651738e-5 0.0001234914525412023 -0.0031869683880358934
-6.0523194406414405e-5 0.00014242221368476748 -0.0031109878327697515
-8.52772718644701e-5 0.00010681962157832459 -0.003035007044672966
-9.082671022042632e-5 3.8335801946232095e-5 -0.0029590262565761805
-8.240483293775469e-5 -1.9681545381899923e-5 -0.0028830457013100386
-6.609866250073537e-5 -3.5914850741392e-5 -0.002807064913213253
-4.695540701504797e-5 -1.11044919322012e-5 -0.0027310841251164675
-2.8520251362351697e-5 2.9921940949861888e-5 -0.0026551035698503256
-1.2950749805895612e-5 6.0329330153763294e-5 -0.00257912278175354
-1.2625629324247711e-6 6.777591624995694e-5 -0.002503142226487398
6.37255334368092e-6 5.3491239668801434e-5 -0.0024271614383906126
1.0352104254707228e-5 2.4133747501764446e-5 -0.002351180650293827
1.1422682291595265e-5 -1.3122074051352683e-5 -0.002275200095027685
1.050324772222666e-5 -5.170018266653642e-5 -0.0021992193069308996
8.547682227799669e-6 -8.589416393078864e-5 -0.002123238518834114
6.444628070312319e-6 -0.00011110780906165019 -0.002047257963567972
4.885740509052994e-6 -0.00012465674080885947 -0.0019712771754711866
4.214472937746905e-6 -0.0001268950290977955 -0.0018952965037897231
4.422250640345737e-6 -0.0001210347909363918 -0.0018193157156929374
5.273810074868379e-6 -0.00011181293666595592 -0.0017433350440114737
6.425153969757957e-6 -0.00010429476969875395 -0.00166735437233001
7.509945589845301e-6 -0.0001030335988616571 -0.0015913737006485462
8.1992238847306e-6 -0.00011152387742185965 -0.0015153929125517607
8.239160706580151e-6 -0.00013146724086254835 -0.001439412240870297
7.471068784070667e-6 -0.00016061055066529661 -0.0013634315691888332
5.837506250827573e-6 -0.0001915931497933343 -0.0012874507810920477
3.3778785564209097e-6 -0.00021453094086609778 -0.001211470109410584
2.163614567507466e-7 -0.00022053965949453413 -0.0011354894377291203
-3.455363639659481e-6 -0.00020356191089376807 -0.0010595087660476565
-7.398393336188747e-6 -0.00015867016918491572 -0.000983527977950871
-1.1348053703841288e-5 -7.982594979694113e-5 -0.0009075473062694074
-1.5035005162644666e-5 3.66428357665427e-5 -0.0008315665763802826
-1.8204780644737184e-5 0.0001866669044829905 -0.0007555859046988189
-2.06348231586162e-5 0.00035704864421859384 -0.0006796051748096943
-2.214833330071997e-5 0.0005274420254863799 -0.0006036245031282306
-2.2624490156886168e-5 0.000674104318022728 -0.0005276437732391059
-2.2004807760822587e-5 0.0007741847075521946 -0.0004516630724538117
-1.070886446541408e-5 0.00040495648863725364 -0.00020683636830653995

CELL_DATA 50

VECTORS liftinglineloading               float
-0.5275659561157227 0.34849533438682556 0.030489392578601834
-0.7464008927345276 0.629294216632843 0.05505610629916191
-0.8645628690719604 0.8791276216506958 0.07691369950771332
-0.4102088510990143 0.5273958444595337 0.046141158789396286
0.03206082805991173 0.24607206881046295 0.021528515964746475
0.5501901507377625 0.17070339620113373 0.014934612438082695
0.6845961809158325 0.12426742166280745 0.010871990583837032
0.2803313136100769 0.22397185862064362 0.01959499903023243
-1.0760620832443237 0.6166245937347412 0.05394766107201577
-3.747539043426514 1.3849221467971802 0.12116499245166779
-6.231685161590576 2.073204278945923 0.18138188123703003
-9.573211669921875 2.6084065437316895 0.22820600867271423
-12.484378814697266 2.7148501873016357 0.23751862347126004
-13.702227592468262 2.898979902267456 0.2536278963088989
-14.253074645996094 3.1223483085632324 0.2731700837612152
-14.456593513488768 3.274434328079224 0.28647589683532715
-14.077620506286623 3.2756700515747066 0.2865839898586273
-13.498225212097168 3.182718515396118 0.2784517705440521
-13.420892715454102 3.104809045791626 0.27163559198379517
-13.015116691589355 2.9516210556030273 0.2582333981990814
-12.682254791259766 2.855135202407837 0.2497919648885727
-12.43971061706543 2.765282392501831 0.24193085730075836
-12.596590042114258 2.74554705619812 0.24020422995090485
-11.844247817993164 2.516179323196411 0.22013717889785767
-12.255878448486328 2.593430995941162 0.22689580917358398
-12.82351016998291 2.5863571166992188 0.22627693414688108
-13.31832027435303 2.5731019973754883 0.22511725127696994
-15.311688423156738 2.7253100872039795 0.23843373358249664
-16.861867904663086 2.7884902954101562 0.24396128952503204
-17.459949493408203 2.7213807106018066 0.2380899637937546
-18.7349796295166 2.656198024749756 0.23238719999790192
-19.728168487548828 2.597757339477539 0.2272743135690689
-20.61669158935547 2.426633834838867 0.21230295300483704
-21.310972213745117 2.225956916809082 0.1947459876537323
-21.75384521484375 2.116717576980591 0.18518880009651184
-21.964967727661133 1.9741202592849731 0.17271314561367035
-21.9447078704834 1.7793629169464111 0.15567408502101898
-21.401100158691406 1.6578502655029297 0.14504310488700867
-20.834566116333008 1.5740054845809937 0.1377076357603073
-20.193937301635742 1.4760397672653198 0.12913675606250763
-19.83753204345703 1.3542017936706543 0.11847729980945586
-18.21024513244629 1.324575662612915 0.11588535457849501
-15.77405834197998 1.4222605228424072 0.12443167716264725
-13.916887283325197 1.4080021381378174 0.12318421900272371
-12.880168914794922 1.6436852216720579 0.14380382001399994
-10.225746154785156 1.7029578685760498 0.1489894986152649
-7.139522075653075 1.7063971757888794 0.14929041266441345
-5.045179843902588 1.7106351852416992 0.14966118335723877
-3.19004225730896 1.6971169710159304 0.14847849309444427
-1.6352593898773193 1.6761170625686646 0.14664123952388763