# vtk DataFile Version 4.0
 
ASCII
DATASET UNSTRUCTURED_GRID
POINTS 51 float
0.0034458015579730272 -0.004823703784495592 -0.005485713016241789
0.00369006278924644 -0.004454458132386208 -0.009751363657414913
0.0038282745517790313 -0.004782019183039665 -0.013816996477544308
0.0037079283501952887 -0.005449796095490456 -0.01774548552930355
0.003376203589141369 -0.00636690715327859 -0.021552858874201775
0.0030025020241737366 -0.007284525316208602 -0.02528299018740654
0.002778564812615514 -0.007832726463675499 -0.029001105576753613
0.0027836053632199764 -0.008210531435906887 -0.03267211467027664
0.0029529223684221506 -0.008745521306991577 -0.036238256841897964
0.003183003049343825 -0.009167283773422241 -0.0397472083568573
0.0033991164527833466 -0.009568027220666409 -0.04318271204829216
0.0035584971774369474 -0.010073990561068058 -0.046522513031959534
0.0036438601091504097 -0.010601796209812164 -0.04978130757808685
0.003657505614683032 -0.01106337085366249 -0.0529746301472187
0.003614672925323248 -0.011465388350188732 -0.056101299822330475
0.0035364592913538218 -0.011863288469612598 -0.05915154144167901
0.003444118425250053 -0.012309041805565357 -0.06211619451642037
0.0033548057544976473 -0.012815441004931928 -0.0649930015206337
0.0032793087884783745 -0.013349077664315699 -0.06778784841299057
0.0032226084731519227 -0.013861062005162239 -0.07050936669111252
0.003185397945344448 -0.01431944500654936 -0.07316318154335022
0.0031655679922550917 -0.01472423505038023 -0.07574929296970367
0.0031594964675605297 -0.015096339397132398 -0.0782640129327774
0.0031630429439246655 -0.015460074879229069 -0.08070305734872818
0.003172241384163499 -0.01583392731845379 -0.08306316286325455
0.0031837469432502985 -0.016229096800088882 -0.08534236252307892
0.003195086726918816 -0.016649940982460976 -0.08753987401723862
0.0032047536224126816 -0.017094707116484642 -0.08965601772069931
0.0032121820840984583 -0.017556512728333473 -0.0916920080780983
0.003217642894014716 -0.01802455261349678 -0.09364974498748779
0.0032219537533819675 -0.01848665438592434 -0.09553137421607971
0.0032260718289762735 -0.01893271692097187 -0.09733867645263672
0.003230798291042447 -0.01935688965022564 -0.09907269477844238
0.0032366192899644375 -0.019758399575948715 -0.10073354840278625
0.0032436484470963474 -0.020141376182436943 -0.10232051461935045
0.003251639194786548 -0.02051401324570179 -0.10383215546607971
0.0032600469421595335 -0.020887324586510658 -0.1052665263414383
0.003268117550760508 -0.02127285674214363 -0.10662158578634261
0.0032749890815466647 -0.021677181124687195 -0.10789618641138077
0.0032797926105558872 -0.022097347304224968 -0.10909083485603333
0.003281744895502925 -0.022520463913679123 -0.11020781099796295
0.0032802252098917965 -0.022926077246665955 -0.11125071346759796
0.0032748340163379903 -0.02328936569392681 -0.11222393810749054
0.0032654285896569495 -0.023580173030495644 -0.1131327822804451
0.003252137918025255 -0.023761780932545662 -0.11398373544216156
0.0032353585120290518 -0.023796800523996353 -0.114783376455307
0.0032157283276319504 -0.023656530305743217 -0.11553677171468735
0.0031940888147801156 -0.02332957647740841 -0.11624594032764435
0.003171431832015514 -0.022827308624982834 -0.11690886318683623
0.003148839809000492 -0.022185098379850388 -0.1175193041563034
0.00312742218375206 -0.021459324285387993 -0.11806733906269072

CELLS 50 150
2 0 1
2 1 2
2 2 3
2 3 4
2 4 5
2 5 6
2 6 7
2 7 8
2 8 9
2 9 10
2 10 11
2 11 12
2 12 13
2 13 14
2 14 15
2 15 16
2 16 17
2 17 18
2 18 19
2 19 20
2 20 21
2 21 22
2 22 23
2 23 24
2 24 25
2 25 26
2 26 27
2 27 28
2 28 29
2 29 30
2 30 31
2 31 32
2 32 33
2 33 34
2 34 35
2 35 36
2 36 37
2 37 38
2 38 39
2 39 40
2 40 41
2 41 42
2 42 43
2 43 44
2 44 45
2 45 46
2 46 47
2 47 48
2 48 49
2 49 50

CELL_TYPES 50
4
4
4
4
4
4
4
4
4
4
4
4
4
4
4
4
4
4
4
4
4
4
4
4
4
4
4
4
4
4
4
4
4
4
4
4
4
4
4
4
4
4
4
4
4
4
4
4
4
4

POINT_DATA 51

SCALARS zone float
LOOKUP_TABLE default
1.0
1.0
1.0
1.0
1.0
1.0
1.0
1.0
1.0
1.0
1.0
1.0
1.0
1.0
1.0
1.0
1.0
1.0
1.0
1.0
1.0
1.0
1.0
1.0
1.0
1.0
1.0
1.0
1.0
1.0
1.0
1.0
1.0
1.0
1.0
1.0
1.0
1.0
1.0
1.0
1.0
1.0
1.0
1.0
1.0
1.0
1.0
1.0
1.0
1.0
1.0

VECTORS normals float
0.00012213067384436727 0.0001846228988142684 -0.002132825553417206
0.00019123655511066318 2.084244079014752e-5 -0.004165641497820616
8.932776836445555e-6 -0.0004976690979674459 -0.003997061401605606
-0.0002260355104226619 -0.0007924439851194621 -0.0038679316639900208
-0.0003527131921146065 -0.000917364377528429 -0.0037687518633902073
-0.00029881938826292753 -0.0007329098298214376 -0.003724123351275921
-0.0001094483450287953 -0.0004630030016414821 -0.0036945624742656946
8.717876335140318e-5 -0.0004563972761388868 -0.0036185744684189554
0.00019969894492533058 -0.00047837625606916845 -0.003537546144798398
0.0002230970421805978 -0.0004112528695259243 -0.0034722290001809597
0.0001877470058389008 -0.00045335365575738257 -0.0033876525703817606
0.00012237193004693836 -0.0005168847274035215 -0.003299297532066703
4.9504207709105685e-5 -0.0004946897970512509 -0.0032260583247989416
-1.4593665582651738e-5 -0.00043179592466913164 -0.00315999542362988
-6.0523194406414405e-5 -0.0003999588661827147 -0.0030884561128914356
-8.52772718644701e-5 -0.0004218266403768211 -0.0030074475798755884
-9.082671022042632e-5 -0.00047607615124434233 -0.0029207291081547737
-8.240483293775469e-5 -0.0005200181622058153 -0.002835828112438321
-6.609866250073537e-5 -0.0005228109075687826 -0.002758182818070054
-4.695540701504797e-5 -0.0004851835838053375 -0.0026876647025346756
-2.8520251362351697e-5 -0.0004315865226089954 -0.002619962440803647
-1.2950749805895612e-5 -0.00038844719529151917 -0.00255041616037488
-1.2625629324247711e-6 -0.00036791982711292803 -0.0024768828880041838
6.37255334368092e-6 -0.0003687935823109001 -0.0023995761293917894
1.0352104254707228e-5 -0.0003845111350528896 -0.0023196516558527946
1.1422682291595265e-5 -0.00040800706483423715 -0.0022383560426533222
1.050324772222666e-5 -0.00043280515819787985 -0.0021568306256085634
8.547682227799669e-6 -0.00045328575652092695 -0.0020760665647685528
6.444628070312319e-6 -0.00046492242836393416 -0.001996861770749092
4.885740509052994e-6 -0.00046507161459885543 -0.00191968260332942
4.214472937746905e-6 -0.0004540819791145622 -0.001844467595219612
4.422250640345737e-6 -0.0004351168754510581 -0.0017706587677821515
5.273810074868379e-6 -0.00041284121107310057 -0.0016974337631836536
6.425153969757957e-6 -0.0003922433534171432 -0.0016239129472523928
7.509945589845301e-6 -0.00037780741695314646 -0.0015493055107071996
8.1992238847306e-6 -0.0003729748132172972 -0.0014730048133060336
8.239160706580151e-6 -0.0003794212534558028 -0.0013947152765467763
7.471068784070667e-6 -0.0003949279198423028 -0.001314828172326088
5.837506250827573e-6 -0.00041224592132493854 -0.0012346217408776283
3.3778785564209097e-6 -0.0004216413071844726 -0.001155812293291092
2.163614567507466e-7 -0.0004143648548051715 -0.0010799424489960074
-3.455363639659481e-6 -0.00038445109385065734 -0.001008064253255725
-7.398393336188747e-6 -0.00032704745535738766 -0.0009410332422703505
-1.1348053703841288e-5 -0.00023620715364813805 -0.0008798979688435793
-1.5035005162644666e-5 -0.00010831387771759182 -0.0008252962143160403
-1.8204780644737184e-5 5.262489503365941e-5 -0.0007765212212689221
-2.06348231586162e-5 0.00023361205239780245 -0.0007312812958844006
-2.214833330071997e-5 0.0004146107239648699 -0.0006860434077680111
-2.2624490156886168e-5 0.0005722387577407062 -0.0006366846500895917
-2.2004807760822587e-5 0.0006839925772510469 -0.0005792370648123324
-1.070886446541408e-5 0.00036288751289248466 -0.00027401401894167066

CELL_DATA 50

VECTORS liftinglineloading               float
-0.6044816970825195 0.5030511021614075 -0.04401126876473427
-0.8916324973106384 0.9326232075691223 -0.08159396052360535
-1.1203380823135376 1.3214685916900635 -0.11561352014541627
-0.4415629506111145 0.6881230473518372 -0.06020296737551689
0.12860284745693207 0.3064822256565094 -0.026813721284270283
0.6545785069465637 0.2408695966005325 -0.0210733599960804
0.4839162230491638 0.2619590759277344 -0.022918449714779854
-0.21699005365371704 0.5265217423439026 -0.04606468603014946
-1.4512561559677124 0.8281760811805725 -0.07245601713657379
-3.829994678497314 1.380155086517334 -0.12074792385101318
-6.321302890777588 2.0282773971557617 -0.17745128273963928
-8.353926658630371 2.5249431133270264 -0.2209039032459259
-11.368349075317383 2.74992299079895 -0.24058708548545837
-13.651198387145996 2.7065589427948 -0.23679323494434357
-14.43995189666748 2.862097978591919 -0.2504011392593384
-14.870466232299806 3.1067347526550293 -0.2718040645122528
-14.431119918823242 3.1909232139587402 -0.27916961908340454
-13.652349472045898 3.1122591495513916 -0.27228739857673645
-13.571824073791504 3.047072649002075 -0.2665843069553375
-12.84156608581543 2.877767562866211 -0.25177204608917236
-12.288865089416504 2.764644145965576 -0.241875022649765
-11.875263214111328 2.663252592086792 -0.23300440609455111
-11.851581573486328 2.630830764770508 -0.23016788065433502
-10.991697311401367 2.402848720550537 -0.2102220207452774
-11.189702033996582 2.4650166034698486 -0.21566101908683777
-11.473098754882812 2.4457027912139893 -0.21397125720977783
-11.638931274414062 2.417494773864746 -0.21150340139865875
-12.840522766113281 2.5413942337036133 -0.22234317660331726
-14.162924766540527 2.6386518478393555 -0.2308521270751953
-14.125553131103517 2.562922716140747 -0.2242266982793808
-15.322131156921387 2.563800811767578 -0.2243034988641739
-16.07854461669922 2.5080745220184326 -0.219428077340126
-16.877668380737305 2.3537230491638184 -0.20592409372329712
-17.548110961914062 2.252091646194458 -0.19703248143196106
-17.95128631591797 2.1659531593322754 -0.18949633836746216
-18.225393295288086 2.046034574508667 -0.17900483310222626
-18.290922164916992 1.8371412754058838 -0.1607290357351303
-18.085201263427734 1.7201392650604248 -0.15049268305301666
-17.627323150634766 1.6295766830444336 -0.14256948232650757
-17.13970184326172 1.5217540264129639 -0.13313622772693634
-16.577211380004883 1.417422890663147 -0.12400843948125839
-15.1477689743042 1.3585901260375977 -0.11886123567819597
-12.891744613647461 1.3989601135253906 -0.12239315360784532
-10.904424667358398 1.3634942770004272 -0.119290292263031
-8.877680778503418 1.5418695211410522 -0.13489609956741333
-7.578717231750488 1.596308946609497 -0.13965894281864166
-6.080855846405029 1.5804158449172974 -0.13826847076416016
-4.704063415527344 1.5771863460540771 -0.1379859298467636
-3.216721534729004 1.550788164138794 -0.13567638397216797
-1.8064043521881104 1.5164344310760498 -0.1326708197593689