# vtk DataFile Version 4.0
 
ASCII
DATASET UNSTRUCTURED_GRID
POINTS 51 float
0.0034458015579730272 0.0023389148991554976 -0.0069203064776957035
0.00369006278924644 0.0062176999635994434 -0.008733355440199375
0.0038282745517790313 0.009574860334396362 -0.011049848049879074
0.0037079283501952887 0.01264314353466034 -0.013592405244708061
0.003376203589141369 0.015481870621442795 -0.016290333122015
0.0030025020241737366 0.018253449350595474 -0.018950078636407852
0.002778564812615514 0.021199330687522888 -0.021283892914652824
0.0027836053632199764 0.02418961562216282 -0.02344658598303795
0.0029529223684221506 0.027010489255189896 -0.025692971423268318
0.003183003049343825 0.029838450253009796 -0.027812704443931576
0.0033991164527833466 0.03261331468820572 -0.029877509921789173
0.0035584971774369474 0.035252682864665985 -0.03198558837175369
0.0036438601091504097 0.037810977548360825 -0.03407207876443863
0.003657505614683032 0.0403456874191761 -0.036068473011255264
0.003614672925323248 0.042852457612752914 -0.03797996789216995
0.0035364592913538218 0.04529509320855141 -0.03984967991709709
0.003444118425250053 0.04763967916369438 -0.04171803966164589
0.0033548057544976473 0.049877867102622986 -0.04359499737620354
0.0032793087884783745 0.05203146114945412 -0.045454565435647964
0.0032226084731519227 0.054132368415594094 -0.04725871607661247
0.003185397945344448 0.056201450526714325 -0.04898259416222572
0.0031655679922550917 0.058238692581653595 -0.050626207143068314
0.0031594964675605297 0.06023045256733895 -0.05220581963658333
0.0031630429439246655 0.06216086074709892 -0.05374034494161606
0.003172241384163499 0.06401784718036652 -0.055244162678718574
0.0031837469432502985 0.06579410284757614 -0.056725990027189255
0.003195086726918816 0.06748678535223007 -0.058189209550619125
0.0032047536224126816 0.06909703463315964 -0.05963246151804924
0.0032121820840984583 0.07062935084104538 -0.06105038896203041
0.003217642894014716 0.07209078222513199 -0.06243459135293961
0.0032219537533819675 0.07348927110433578 -0.06377559900283813
0.0032260718289762735 0.07483141124248505 -0.06506555527448654
0.003230798291042447 0.076121024787426 -0.06629990041255951
0.0032366192899644375 0.07735861092805862 -0.06747804582118988
0.0032436484470963474 0.07854148000478745 -0.06860320270061493
0.003251639194786548 0.07966428250074387 -0.06968173384666443
0.0032600469421595335 0.08071982115507126 -0.07072221487760544
0.003268117550760508 0.08170057833194733 -0.07173363119363785
0.0032749890815466647 0.08260224759578705 -0.07272107899188995
0.0032797926105558872 0.08342675864696503 -0.0736822783946991
0.003281744895502925 0.08418253064155579 -0.07460720092058182
0.0032802252098917965 0.08488290756940842 -0.07547992467880249
0.0032748340163379903 0.08554409444332123 -0.07628115266561508
0.0032654285896569495 0.08618577569723129 -0.07698742300271988
0.003252137918025255 0.08683191984891891 -0.07757017016410828
0.0032353585120290518 0.08750692009925842 -0.07800032198429108
0.0032157283276319504 0.08822951465845108 -0.0782555416226387
0.0031940888147801156 0.08900714665651321 -0.07832697778940201
0.003171431832015514 0.08983238786458969 -0.07822345942258835
0.003148839809000492 0.09068215638399124 -0.07797251641750336
0.00312742218375206 0.09151965379714966 -0.07761798799037933

CELLS 50 150
2 0 1
2 1 2
2 2 3
2 3 4
2 4 5
2 5 6
2 6 7
2 7 8
2 8 9
2 9 10
2 10 11
2 11 12
2 12 13
2 13 14
2 14 15
2 15 16
2 16 17
2 17 18
2 18 19
2 19 20
2 20 21
2 21 22
2 22 23
2 23 24
2 24 25
2 25 26
2 26 27
2 27 28
2 28 29
2 29 30
2 30 31
2 31 32
2 32 33
2 33 34
2 34 35
2 35 36
2 36 37
2 37 38
2 38 39
2 39 40
2 40 41
2 41 42
2 42 43
2 43 44
2 44 45
2 45 46
2 46 47
2 47 48
2 48 49
2 49 50

CELL_TYPES 50
4
4
4
4
4
4
4
4
4
4
4
4
4
4
4
4
4
4
4
4
4
4
4
4
4
4
4
4
4
4
4
4
4
4
4
4
4
4
4
4
4
4
4
4
4
4
4
4
4
4

POINT_DATA 51

SCALARS zone float
LOOKUP_TABLE default
1.0
1.0
1.0
1.0
1.0
1.0
1.0
1.0
1.0
1.0
1.0
1.0
1.0
1.0
1.0
1.0
1.0
1.0
1.0
1.0
1.0
1.0
1.0
1.0
1.0
1.0
1.0
1.0
1.0
1.0
1.0
1.0
1.0
1.0
1.0
1.0
1.0
1.0
1.0
1.0
1.0
1.0
1.0
1.0
1.0
1.0
1.0
1.0
1.0
1.0
1.0

VECTORS normals float
0.00012213067384436727 0.001939392532221973 -0.0009065245976671576
0.00019123655511066318 0.003617972601205111 -0.0020647707860916853
8.932776836445555e-6 0.0032127220183610916 -0.0024295246694236994
-0.0002260355104226619 0.0029535051435232162 -0.0026202425360679626
-0.0003527131921146065 0.002805152675136924 -0.002678836928680539
-0.00029881938826292753 0.002858730498701334 -0.002496780129149556
-0.0001094483450287953 0.002968083368614316 -0.0022482536733150482
8.717876335140318e-5 0.0029055788181722164 -0.0022045387886464596
0.00019969894492533058 0.0028244166169315577 -0.002183058997616172
0.0002230970421805978 0.0028014120180159807 -0.0020922699477523565
0.0001877470058389008 0.0027071163058280945 -0.0020864421967417
0.00012237193004693836 0.0025988330598920584 -0.0020972839556634426
4.9504207709105685e-5 0.0025465034414082766 -0.002041443018242717
-1.4593665582651738e-5 0.0025207381695508957 -0.0019539438653737307
-6.0523194406414405e-5 0.0024747021961957216 -0.0018906026380136607
-8.52772718644701e-5 0.002393612638115883 -0.0018690363503992558
-9.082671022042632e-5 0.002291387412697077 -0.001872658496722579
-8.240483293775469e-5 0.002195890061557293 -0.0018682630034163594
-6.609866250073537e-5 0.002127250889316201 -0.0018318588845431805
-4.695540701504797e-5 0.002084993990138173 -0.0017640136647969486
-2.8520251362351697e-5 0.002053160686045885 -0.0016837461153045299
-1.2950749805895612e-5 0.0020145017188042402 -0.0016116132028400898
-1.2625629324247711e-6 0.0019610836170613766 -0.0015570693649351597
6.37255334368092e-6 0.0018936970736831427 -0.0015191725688055158
1.0352104254707228e-5 0.0018166217487305403 -0.0014928223099559546
1.1422682291595265e-5 0.0017344696680083873 -0.0014725225046277046
1.050324772222666e-5 0.0016514675226062534 -0.001453235512599349
8.547682227799669e-6 0.0015712834428995848 -0.00143059017136693
6.444628070312319e-6 0.0014968718169257045 -0.001401065499521792
4.885740509052994e-6 0.0014299581525847316 -0.0013626051368191838
4.214472937746905e-6 0.0013703147415071726 -0.0013154803309589624
4.422250640345737e-6 0.0013158770743757486 -0.0012621516361832619
5.273810074868379e-6 0.0012636001920327544 -0.0012062478344887495
6.425153969757957e-6 0.0012102281907573342 -0.001151649164967239
7.509945589845301e-6 0.001152834272943437 -0.0011018435470759869
8.1992238847306e-6 0.0010891722049564123 -0.0010595080675557256
8.239160706580151e-6 0.0010181482648476958 -0.0010259461123496294
7.471068784070667e-6 0.0009412106592208148 -0.0009994317078962922
5.837506250827573e-6 0.0008630908560007812 -0.0009743263362906873
3.3778785564209097e-6 0.000790142104960978 -0.0009430582285858691
2.163614567507466e-7 0.0007280752179212868 -0.0008988217450678349
-3.455363639659481e-6 0.0006807837053202093 -0.0008369765710085629
-7.398393336188747e-6 0.0006514349370263517 -0.0007537479978054762
-1.1348053703841288e-5 0.0006439104327000678 -0.0006445103790611029
-1.5035005162644666e-5 0.0006605705129913986 -0.000506450654938817
-1.8204780644737184e-5 0.0006987995584495366 -0.00034268610761500895
-2.06348231586162e-5 0.0007501142099499702 -0.00016332668019458652
-2.214833330071997e-5 0.0008014363702386617 1.604169847269077e-5
-2.2624490156886168e-5 0.0008375045144930482 0.00017723097698763013
-2.2004807760822587e-5 0.0008436302887275815 0.00030273644370026886
-1.070886446541408e-5 0.00041874684393405914 0.00017726280202623457

CELL_DATA 50

VECTORS liftinglineloading               float
-0.32894691824913025 0.07908213138580322 0.11294098198413849
-0.35624244809150696 0.23245194554328918 0.3319757878780365
-0.36448249220848083 0.3189193904399872 0.4554641246795655
0.04758371412754059 0.03882038593292236 0.05544125661253929
0.3451908230781555 0.040024254471063614 0.05716056004166603
0.6497000455856323 0.04578143358230591 0.06538265943527222
0.5883001685142517 0.019758567214012146 0.02821815758943558
0.32397106289863586 -0.004140656907111406 -0.00591347087174654
-0.37865501642227173 0.1164490282535553 0.16630645096302032
-1.4524714946746826 0.2633424401283264 0.37609198689460754
-2.3337936401367188 0.3645404279232025 0.520617663860321
-2.656095504760742 0.4566735923290252 0.6521974802017212
-3.002978801727295 0.5528557896614075 0.7895599007606506
-3.275492429733277 0.6107195615768433 0.8721979260444641
-3.6379594802856445 0.6726241707801819 0.9606068730354308
-4.0324602127075195 0.7278285026550293 1.0394468307495117
-4.821620941162109 0.7977867722511292 1.139357566833496
-5.6850786209106445 0.9012387990951539 1.2871023416519165
-7.019036769866943 1.027121901512146 1.4668821096420288
-8.255854606628418 1.103441834449768 1.5758781433105469
-9.651782989501953 1.195462942123413 1.707297921180725
-11.185611724853516 1.2744641304016113 1.820123314857483
-12.980802536010742 1.3598169088363647 1.9420199394226076
-13.812605857849121 1.3340739011764526 1.9052549600601196
-16.2774658203125 1.425869345664978 2.0363523960113525
-17.873395919799805 1.436440348625183 2.0514495372772217
-19.54886245727539 1.4570311307907104 2.0808560848236084
-21.56630516052246 1.471642017364502 2.1017227172851562
-22.310588836669922 1.422684907913208 2.0318045616149902
-23.54304313659668 1.385408878326416 1.9785689115524292
-23.815717697143555 1.301275372505188 1.8584139347076414
-24.272058486938477 1.2996046543121338 1.8560277223587036
-24.451292037963867 1.2464683055877686 1.7801411151885986
-24.458642959594727 1.0910162925720215 1.5581327676773071
-24.354841232299805 1.0495426654815674 1.4989023208618164
-24.362932205200195 0.9817618131637573 1.4021011590957642
-23.810590744018555 0.9152047634124757 1.3070478439331055
-22.733427047729492 0.8678395748138428 1.2394033670425415
-21.885669708251953 0.8365718126296997 1.1947482824325562
-21.018823623657227 0.7950301766395569 1.1354206800460815
-20.291723251342773 0.7332434058189392 1.04718017578125
-18.626081466674805 0.7267403602600098 1.0378928184509277
-16.308034896850586 0.7899370193481445 1.128147006034851
-14.807621002197266 0.7842774391174316 1.1200642585754395
-12.543362617492676 0.9161471724510193 1.3083937168121338
-9.546072006225586 0.9486783742904664 1.3548531532287598
-6.963115692138671 0.9468044638633729 1.3521769046783447
-4.998015880584717 0.9435026049613954 1.3474613428115845
-3.1878907680511475 0.9288142919540406 1.3264843225479126
-1.644106149673462 0.9088557958602905 1.297980546951294