# vtk DataFile Version 4.0
 
ASCII
DATASET UNSTRUCTURED_GRID
POINTS 51 float
0.0034458015579730272 -0.005885251797735691 0.004327236674726009
0.00369006278924644 -0.010102489031851292 0.0035876201000064616
0.0038282745517790313 -0.014181198552250862 0.003559591481462121
0.0037079283501952887 -0.018152941018342972 0.003882437245920301
0.003376203589141369 -0.022025756537914276 0.004464223515242338
0.0030025020241737366 -0.025821669027209282 0.005053247325122356
0.002778564812615514 -0.029573416337370872 0.005275307688862085
0.0027836053632199764 -0.03326338157057762 0.0053317248821258545
0.0029529223684221506 -0.0368625782430172 0.005553869530558586
0.003183003049343825 -0.04039493948221207 0.005668201949447393
0.0033991164527833466 -0.043852299451828 0.005767996422946453
0.0035584971774369474 -0.04722348600625992 0.005980952177196741
0.0036438601091504097 -0.050515882670879364 0.006222726311534643
0.003657505614683032 -0.053737279027700424 0.006404228042811156
0.003614672925323248 -0.05688709020614624 0.006532208528369665
0.0035364592913538218 -0.05996040627360344 0.006662748288363218
0.003444118425250053 -0.06295262277126312 0.00684841861948371
0.0033548057544976473 -0.06586261838674545 0.007102160714566708
0.0032793087884783745 -0.06869334727525711 0.007390180137008429
0.0032226084731519227 -0.07144912332296371 0.0076630208641290665
0.003185397945344448 -0.07413279265165329 0.007888363674283028
0.0031655679922550917 -0.07674434036016464 0.00806621927767992
0.0031594964675605297 -0.07928192615509033 0.008217735216021538
0.0031630429439246655 -0.08174338936805725 0.008367510512471199
0.003172241384163499 -0.08412709832191467 0.00853424146771431
0.0031837469432502985 -0.0864320620894432 0.00872926414012909
0.003195086726918816 -0.08865790069103241 0.00895697996020317
0.0032047536224126816 -0.09080475568771362 0.00921562034636736
0.0032121820840984583 -0.09287324547767639 0.00949821900576353
0.003217642894014716 -0.09486432373523712 0.009793850593268871
0.0032219537533819675 -0.09677906334400177 0.01009020023047924
0.0032260718289762735 -0.09861837327480316 0.010377046652138233
0.003230798291042447 -0.10038275271654129 0.010648475959897041
0.0032366192899644375 -0.10207228362560272 0.010903704911470413
0.0032436484470963474 -0.10368659347295761 0.011146911419928074
0.003251639194786548 -0.10522495955228804 0.011386383324861526
0.0032600469421595335 -0.10668640583753586 0.011633260175585747
0.003268117550760508 -0.10806991159915925 0.011899222619831562
0.0032749890815466647 -0.10937489569187164 0.012190921232104301
0.0032797926105558872 -0.11060161888599396 0.012505368329584599
0.003281744895502925 -0.11175122112035751 0.012829523533582686
0.0032802252098917965 -0.11282551288604735 0.01314269844442606
0.0032748340163379903 -0.11382669210433961 0.013419782742857935
0.0032654285896569495 -0.11475742608308791 0.013630270957946779
0.003252137918025255 -0.11562096327543259 0.013737022876739502
0.0032353585120290518 -0.11642061918973921 0.013702216558158398
0.0032157283276319504 -0.1171589270234108 0.013496817089617252
0.0031940888147801156 -0.11783689260482787 0.013109299354255198
0.003171431832015514 -0.11845351755619049 0.01255116518586874
0.003148839809000492 -0.11900567263364792 0.011858195066452026
0.00312742218375206 -0.11948835849761963 0.011087418533861637

CELLS 50 150
2 0 1
2 1 2
2 2 3
2 3 4
2 4 5
2 5 6
2 6 7
2 7 8
2 8 9
2 9 10
2 10 11
2 11 12
2 12 13
2 13 14
2 14 15
2 15 16
2 16 17
2 17 18
2 18 19
2 19 20
2 20 21
2 21 22
2 22 23
2 23 24
2 24 25
2 25 26
2 26 27
2 27 28
2 28 29
2 29 30
2 30 31
2 31 32
2 32 33
2 33 34
2 34 35
2 35 36
2 36 37
2 37 38
2 38 39
2 39 40
2 40 41
2 41 42
2 42 43
2 43 44
2 44 45
2 45 46
2 46 47
2 47 48
2 48 49
2 49 50

CELL_TYPES 50
4
4
4
4
4
4
4
4
4
4
4
4
4
4
4
4
4
4
4
4
4
4
4
4
4
4
4
4
4
4
4
4
4
4
4
4
4
4
4
4
4
4
4
4
4
4
4
4
4
4

POINT_DATA 51

SCALARS zone float
LOOKUP_TABLE default
1.0
1.0
1.0
1.0
1.0
1.0
1.0
1.0
1.0
1.0
1.0
1.0
1.0
1.0
1.0
1.0
1.0
1.0
1.0
1.0
1.0
1.0
1.0
1.0
1.0
1.0
1.0
1.0
1.0
1.0
1.0
1.0
1.0
1.0
1.0
1.0
1.0
1.0
1.0
1.0
1.0
1.0
1.0
1.0
1.0
1.0
1.0
1.0
1.0
1.0
1.0

VECTORS normals float
0.00012213067384436727 -0.0021086183842271566 -0.000369808345567435
0.00019123655511066318 -0.0041479733772575855 -0.000383822713047266
8.932776836445555e-6 -0.00402522599324584 0.00014740850019734353
-0.0002260355104226619 -0.003922278992831707 0.00045231604599393904
-0.0003527131921146065 -0.0038343642372637987 0.0005854051560163498
-0.00029881938826292753 -0.0037738294340670104 0.00040554211591370404
-0.0001094483450287953 -0.003720856970176101 0.00013923879305366427
8.717876335140318e-5 -0.003644582349807024 0.00013928100815974176
0.00019969894492533058 -0.0035657777916640048 0.0001682384463492781
0.0002230970421805978 -0.003494859207421541 0.0001070632497430779
0.0001877470058389008 -0.003414273960515857 0.0001563751429785043
0.00012237193004693836 -0.0033317920751869674 0.00022736508981324732
4.9504207709105685e-5 -0.0032568972092121835 0.00021163786004763094
-1.4593665582651738e-5 -0.0031856040004640813 0.0001547410647617653
-6.0523194406414405e-5 -0.0031115624587982893 0.00012926019553560764
-8.52772718644701e-5 -0.0030327679123729467 0.0001581051474204287
-9.082671022042632e-5 -0.0029511074535548687 0.00021970621310174465
-8.240483293775469e-5 -0.00287035945802927 0.0002708806423470378
-6.609866250073537e-5 -0.002793252933770418 0.0002804300165735185
-4.695540701504797e-5 -0.002719723852351308 0.0002490919141564518
-2.8520251362351697e-5 -0.002647607820108533 0.0002015994396060705
-1.2950749805895612e-5 -0.0025745665188878775 0.00016468561079818755
-1.2625629324247711e-6 -0.002499524038285017 0.00015064520994201303
6.37255334368092e-6 -0.0024225874803960323 0.00015825337322894484
1.0352104254707228e-5 -0.002344337059184909 0.0001808769884519279
1.1422682291595265e-5 -0.002265398623421788 0.0002113688824465498
1.050324772222666e-5 -0.0021863447036594152 0.00024317803035955876
8.547682227799669e-6 -0.0021076728589832783 0.00027061975561082363
6.444628070312319e-6 -0.0020297837909311056 0.0002891152980737388
4.885740509052994e-6 -0.0019529113778844476 0.0002959905250463635
4.214472937746905e-6 -0.001877024653367698 0.0002915981167461723
4.422250640345737e-6 -0.0018018438713625073 0.0002791380393318832
5.273810074868379e-6 -0.0017269559903070333 0.00026332912966609
6.425153969757957e-6 -0.0016519196797162294 0.00024921740987338126
7.509945589845301e-6 -0.0015763380797579885 0.00024133888655342162
8.1992238847306e-6 -0.001499906531535089 0.00024317469797097147
8.239160706580151e-6 -0.0014224767219275236 0.00025641999673098326
7.471068784070667e-6 -0.0013442451599985361 0.00027883026632480323
5.837506250827573e-6 -0.001265853294171393 0.0003030728257726878
3.3778785564209097e-6 -0.0011881624814122915 0.00031930115073919296
2.163614567507466e-7 -0.0011119472328573465 0.00031866488279774785
-3.455363639659481e-6 -0.0010377353755757213 0.0002951295755337924
-7.398393336188747e-6 -0.0009659563656896353 0.00024378648959100246
-1.1348053703841288e-5 -0.0008971365168690681 0.00015862015425227582
-1.5035005162644666e-5 -0.0008315958548337222 3.5972407204099e-5
-1.8204780644737184e-5 -0.0007689797785133123 -0.00012010292266495527
-2.06348231586162e-5 -0.000708137929905206 -0.00029645845643244684
-2.214833330071997e-5 -0.000647297129034996 -0.0004728256317321211
-2.2624490156886168e-5 -0.000584387977141887 -0.0006255519692786038
-2.2004807760822587e-5 -0.0005174190155230463 -0.000731873617041856
-1.070886446541408e-5 -0.00024134357227012515 -0.00038538852822966874

CELL_DATA 50

VECTORS liftinglineloading               float
-0.2397633492946625 -2.5543426254096956e-15 -0.7844368815422058
-0.6366449594497681 -7.709673557117908e-15 -2.367635488510132
-1.915958523750305 -1.4097464108618967e-14 -4.32932186126709
2.898686408996582 -9.776886264012234e-16 -0.30024752020835876
7.82834005355835 -1.785319718531622e-15 -0.5482704639434814
11.17944049835205 -1.7472877274416667e-15 -0.5365908741950989
8.052850723266602 -4.1339270937178717e-16 -0.1269526183605194
2.6919960975646973 4.092422214604615e-16 0.12567801773548126
-2.265537977218628 -3.7356935477146375e-15 -1.1472289562225342
-5.062314510345459 -4.7827253733757815e-15 -1.4687716960906982
-1.248317003250122 -1.9287592424349805e-15 -0.5923206806182861
1.1870399713516235 6.909382746629297e-16 0.21218667924404147
1.6607718467712405 8.640355984232135e-16 0.2653447389602661
1.977413296699524 9.6335354668101e-16 0.29584524035453796
2.065005302429199 8.813547222770446e-16 0.27066344022750854
1.8968107700347898 7.221796026147468e-16 0.2217808663845062
0.9682546854019165 -3.448418300246842e-16 -0.10590068995952606
-0.8473867774009706 -1.8472162276357562e-15 -0.5672788619995117
-3.031548023223877 -3.5977817608250605e-15 -1.1048763990402222
-5.205310344696045 -4.827024773000708e-15 -1.482375979423523
-7.335348606109618 -5.855928399524715e-15 -1.7983516454696653
-9.234984397888184 -6.58492857612855e-15 -2.0222270488739014
-11.034462928771973 -7.18689498646792e-15 -2.207090377807617
-11.738748550415039 -7.07718346749128e-15 -2.17339825630188
-13.041158676147461 -7.584399925317838e-15 -2.3291640281677246
-14.197151184082031 -7.739016472476691e-15 -2.3766467571258545
-15.062360763549806 -7.837882158080213e-15 -2.407008171081543
-16.533245086669922 -8.174899627133754e-15 -2.5105061531066895
-17.326839447021484 -8.207492607911152e-15 -2.5205154418945312
-17.212234497070312 -8.125869972014886e-15 -2.4954490661621094
-17.70635414123535 -7.905034930138534e-15 -2.42763090133667
-18.017690658569336 -7.787549766288468e-15 -2.3915512561798096
-18.23334503173828 -7.313745793615777e-15 -2.246046543121338
-18.312850952148438 -6.8627494535973294e-15 -2.107545852661133
-18.18113136291504 -6.6312981242765655e-15 -2.0364673137664795
-17.93268585205078 -6.299973563661521e-15 -1.9347176551818848
-17.542787551879883 -5.702475252118916e-15 -1.7512263059616087
-16.982070922851562 -5.376240088967449e-15 -1.651039719581604
-16.261608123779297 -5.123406683442671e-15 -1.573394775390625
-15.590601921081541 -4.806312699857972e-15 -1.476015329360962
-14.887182235717772 -4.5176006727533965e-15 -1.3873521089553833
-13.435589790344238 -4.326844194350518e-15 -1.3287708759307861
-11.191614151000977 -4.384298015646304e-15 -1.3464149236679077
-9.402793884277344 -4.2449882008772834e-15 -1.3036329746246338
-7.610380172729493 -4.6630785814443226e-15 -1.4320282936096191
-6.345953464508057 -4.7919033988757555e-15 -1.4715903997421265
-4.98879861831665 -4.685178094554661e-15 -1.4388151168823242
-3.744646787643432 -4.6421987957780304e-15 -1.4256161451339722
-2.4743144512176514 -4.509843121505968e-15 -1.3849698305130005
-1.3065239191055298 -4.343011088698287e-15 -1.3337358236312866