# vtk DataFile Version 4.0
 
ASCII
DATASET UNSTRUCTURED_GRID
POINTS 51 float
0.0034458015579730272 -0.0011016827775165439 0.007221319712698459
0.00369006278924644 -0.004606707487255335 0.009680368937551975
0.0038282745517790313 -0.007510610390454531 0.012544632889330387
0.0037079283501952887 -0.01009076926857233 0.015581364743411541
0.003376203589141369 -0.012417878955602646 0.018731243908405304
0.0030025020241737366 -0.014685492031276224 0.02183186262845993
0.002778564812615514 -0.017181357368826866 0.024641769006848335
0.0027836053632199764 -0.01975066401064396 0.027290862053632736
0.0029529223684221506 -0.022138601168990135 0.029992958530783653
0.003183003049343825 -0.0245555117726326 0.03257155790925026
0.0033991164527833466 -0.026929669082164764 0.035086847841739655
0.0035584971774369474 -0.02916287630796433 0.03762121871113777
0.0036438601091504097 -0.0313199907541275 0.04012025520205498
0.003657505614683032 -0.03346952423453331 0.04252646863460541
0.003614672925323248 -0.03560627996921539 0.04484421759843826
0.0035364592913538218 -0.03768713399767876 0.047109685838222504
0.003444118425250053 -0.03967166692018509 0.049356792122125626
0.0033548057544976473 -0.0415499210357666 0.05159389227628708
0.0032793087884783745 -0.043347883969545364 0.05379917845129967
0.0032226084731519227 -0.045103587210178375 0.05594073608517647
0.003185397945344448 -0.04684188589453697 0.05799771472811699
0.0031655679922550917 -0.04856276512145996 0.05997012555599212
0.0031594964675605297 -0.05024997144937515 0.06187160313129425
0.0031630429439246655 -0.05188458412885666 0.0637180283665657
0.003172241384163499 -0.05345222353935242 0.06552146375179291
0.0031837469432502985 -0.05494417622685433 0.06728921830654144
0.003195086726918816 -0.05635705962777138 0.06902413815259933
0.0032047536224126816 -0.05769222974777221 0.07072508335113525
0.0032121820840984583 -0.05895504355430603 0.07238755375146866
0.003217642894014716 -0.06015390530228615 0.07400450110435486
0.0032219537533819675 -0.06129828467965127 0.07556798309087753
0.0032260718289762735 -0.06239603832364082 0.07707139849662781
0.003230798291042447 -0.06345171481370926 0.07851093262434006
0.0032366192899644375 -0.06446591764688492 0.07988608628511429
0.0032436484470963474 -0.06543543934822083 0.08119954913854599
0.003251639194786548 -0.06635389477014542 0.08245667070150375
0.0032600469421595335 -0.06721272319555283 0.08366464078426361
0.003268117550760508 -0.06800294667482376 0.08483099192380905
0.0032749890815466647 -0.06871944665908813 0.0859600156545639
0.0032797926105558872 -0.0693645253777504 0.08704978227615356
0.003281744895502925 -0.06994820386171341 0.0880918875336647
0.0032802252098917965 -0.0704863965511322 0.08907297998666763
0.0032748340163379903 -0.0709984079003334 0.08997684717178345
0.0032654285896569495 -0.07150769978761673 0.09078381210565567
0.003252137918025255 -0.07204283028841019 0.0914699137210846
0.0032353585120290518 -0.07263287901878357 0.0920107364654541
0.0032157283276319504 -0.07330018281936646 0.09238756448030472
0.0031940888147801156 -0.07405359297990799 0.09259293973445892
0.003171431832015514 -0.07488427311182022 0.09263429790735245
0.003148839809000492 -0.07576470822095871 0.09253472834825516
0.00312742218375206 -0.07665103673934937 0.09233101457357407

CELLS 50 150
2 0 1
2 1 2
2 2 3
2 3 4
2 4 5
2 5 6
2 6 7
2 7 8
2 8 9
2 9 10
2 10 11
2 11 12
2 12 13
2 13 14
2 14 15
2 15 16
2 16 17
2 17 18
2 18 19
2 19 20
2 20 21
2 21 22
2 22 23
2 23 24
2 24 25
2 25 26
2 26 27
2 27 28
2 28 29
2 29 30
2 30 31
2 31 32
2 32 33
2 33 34
2 34 35
2 35 36
2 36 37
2 37 38
2 38 39
2 39 40
2 40 41
2 41 42
2 42 43
2 43 44
2 44 45
2 45 46
2 46 47
2 47 48
2 48 49
2 49 50

CELL_TYPES 50
4
4
4
4
4
4
4
4
4
4
4
4
4
4
4
4
4
4
4
4
4
4
4
4
4
4
4
4
4
4
4
4
4
4
4
4
4
4
4
4
4
4
4
4
4
4
4
4
4
4

POINT_DATA 51

SCALARS zone float
LOOKUP_TABLE default
1.0
1.0
1.0
1.0
1.0
1.0
1.0
1.0
1.0
1.0
1.0
1.0
1.0
1.0
1.0
1.0
1.0
1.0
1.0
1.0
1.0
1.0
1.0
1.0
1.0
1.0
1.0
1.0
1.0
1.0
1.0
1.0
1.0
1.0
1.0
1.0
1.0
1.0
1.0
1.0
1.0
1.0
1.0
1.0
1.0
1.0
1.0
1.0
1.0
1.0
1.0

VECTORS normals float
0.00012213067384436727 -0.0017525124130770564 0.001229524496011436
0.00019123655511066318 -0.0032044639810919766 0.0026616565883159637
8.932776836445555e-6 -0.002742030890658498 0.0029504981357604265
-0.0002260355104226619 -0.0024536342825740576 0.003093305742368102
-0.0003527131921146065 -0.002297361148521304 0.0031252489425241947
-0.00029881938826292753 -0.002381738740950823 0.0029552618507295847
-0.0001094483450287953 -0.002532586455345154 0.0027294999454170465
8.717876335140318e-5 -0.002478622365742922 0.00267559546045959
0.00019969894492533058 -0.002402423182502389 0.002640348393470049
0.0002230970421805978 -0.0023955334909260273 0.002546943724155426
0.0001877470058389008 -0.002303682267665863 0.0025248301681131124
0.00012237193004693836 -0.0021951615344733 0.0025167041458189487
4.9504207709105685e-5 -0.002153323497623205 0.0024526247289031744
-1.4593665582651738e-5 -0.0021431436762213707 0.0023619807325303555
-6.0523194406414405e-5 -0.0021088060457259417 0.0022916076704859734
-8.52772718644701e-5 -0.002032693475484848 0.0022562879603356123
-9.082671022042632e-5 -0.0019313923548907042 0.0022421039175242186
-8.240483293775469e-5 -0.0018381091067567468 0.0022211922332644463
-6.609866250073537e-5 -0.001776834134943783 0.002173422137275338
-4.695540701504797e-5 -0.0017470006132498384 0.0020992697682231665
-2.8520251362351697e-5 -0.0017295891884714363 0.0020146938040852547
-1.2950749805895612e-5 -0.0017040431266650558 0.0019369437359273434
-1.2625629324247711e-6 -0.0016609081067144873 0.0018739525694400074
6.37255334368092e-6 -0.0016011259285733104 0.0018249299610033633
1.0352104254707228e-5 -0.0015297973295673728 0.0017855960177257657
1.1422682291595265e-5 -0.001452418277040124 0.0017513390630483627
1.050324772222666e-5 -0.001374026294797659 0.0017179319402202962
8.547682227799669e-6 -0.0012989926617592573 0.0016817068681120872
6.444628070312319e-6 -0.0012308384757488966 0.0016397092258557677
4.885740509052994e-6 -0.001171619980596006 0.0015902137383818626
4.214472937746905e-6 -0.0011210658121854067 0.0015334478812292218
4.422250640345737e-6 -0.0010767156491056085 0.0014714763965457678
5.273810074868379e-6 -0.0010349404765293002 0.001407344127073884
6.425153969757957e-6 -0.000991860288195312 0.0013443069765344262
7.509945589845301e-6 -0.0009439869318157433 0.0012852916261181235
8.1992238847306e-6 -0.0008886435534805059 0.0012325445422902703
8.239160706580151e-6 -0.0008245265926234425 0.001187159214168787
7.471068784070667e-6 -0.0007533620810136199 0.0011476876679807901
5.837506250827573e-6 -0.000680788594763726 0.001109398202970624
3.3778785564209097e-6 -0.0006143777281977236 0.001065937802195549
2.163614567507466e-7 -0.0005609353538602591 0.0010115954792127013
-3.455363639659481e-6 -0.0005251016118563712 0.0009424778399989008
-7.398393336188747e-6 -0.0005106512107886374 0.0008554173982702196
-1.1348053703841288e-5 -0.000522209913469851 0.0007465326925739646
-1.5035005162644666e-5 -0.0005625907215289772 0.0006134634022600949
-1.8204780644737184e-5 -0.000628676381893456 0.0004588252049870789
-2.06348231586162e-5 -0.0007103569223545492 0.0002911013434641063
-2.214833330071997e-5 -0.0007920463685877621 0.0001233699731528759
-2.2624490156886168e-5 -0.0008555567474104464 -2.9107308364473283e-5
-2.2004807760822587e-5 -0.0008833833271637559 -0.00015164232172537595
-1.070886446541408e-5 -0.00044316650019027293 -0.00010185516293859109

CELL_DATA 50

VECTORS liftinglineloading               float
-0.30520424246788025 0.0304963830858469 0.0304963830858469
-0.3394199013710022 -0.04303871840238571 -0.04303871840238571
-0.2470666170120239 -0.08663268387317657 -0.08663268387317657
-0.13138580322265625 -0.08007383346557617 -0.08007383346557617
-0.020761849358677864 -0.03788195550441742 -0.03788195550441742
0.1135559156537056 -0.019930412992835045 -0.019930412992835045
0.20762473344802856 -0.015101377852261065 -0.015101377852261065
0.2642475962638855 0.009850031696259975 0.009850031696259975
-0.4074943363666534 -0.1401989907026291 -0.1401989907026291
-1.4622505903244019 -0.31295716762542725 -0.31295716762542725
-2.4271605014801025 -0.4711557924747467 -0.4711557924747467
-2.9148576259613037 -0.6129567623138428 -0.6129567623138428
-3.3596565723419185 -0.7557325959205627 -0.7557325959205627
-3.5933172702789307 -0.8266116976737977 -0.8266116976737977
-3.7542133331298824 -0.8721258044242859 -0.8721258044242859
-3.859856367111206 -0.9028316140174865 -0.9028316140174865
-4.0072431564331055 -0.9022141695022584 -0.9022141695022584
-4.136569023132324 -0.9333709478378296 -0.9333709478378296
-7.580920219421387 -1.3637734651565552 -1.3637734651565552
-6.592573642730714 -1.2385482788085938 -1.2385482788085938
-8.09636116027832 -1.3815867900848389 -1.3815867900848389
-9.809290885925293 -1.5109599828720093 -1.5109599828720093
-11.835481643676758 -1.6442131996154783 -1.6442131996154783
-12.990084648132324 -1.6297913789749146 -1.6297913789749146
-15.00688171386719 -1.7538892030715942 -1.7538892030715942
-17.008108139038086 -1.7946147918701174 -1.7946147918701174
-18.805423736572266 -1.8205509185791013 -1.8205509185791013
-21.179487228393555 -1.8537768125534058 -1.8537768125534058
-22.275676727294922 -1.793090581893921 -1.793090581893921
-23.793506622314453 -1.7378867864608765 -1.7378867864608765
-24.35111427307129 -1.6205365657806396 -1.6205365657806396
-25.081317901611328 -1.6073261499404907 -1.6073261499404907
-25.510643005371094 -1.5366528034210205 -1.5366528034210205
-25.395082473754883 -1.3374645709991455 -1.3374645709991455
-25.39499282836914 -1.2813115119934082 -1.2813115119934082
-25.139225006103516 -1.2035166025161743 -1.2035166025161743
-25.130434036254883 -1.1160334348678589 -1.1160334348678589
-24.045467376708984 -1.0602787733078003 -1.0602787733078003
-23.28520393371582 -1.0234179496765137 -1.0234179496765137
-22.572439193725586 -0.974706768989563 -0.974706768989563
-22.218233108520508 -0.8948473334312439 -0.8948473334312439
-21.46901512145996 -0.8934693932533264 -0.8934693932533264
-19.446422576904297 -0.9793612360954284 -0.9793612360954284
-14.144925117492674 -0.9791484475135803 -0.9791484475135803
-10.57144546508789 -1.1592350006103516 -1.1592350006103516
-8.438163757324219 -1.2049354314804077 -1.2049354314804077
-6.376553058624268 -1.2086529731750488 -1.2086529731750488
-4.654151439666748 -1.2066344022750854 -1.2066344022750854
-3.0083541870117188 -1.1913646459579468 -1.1913646459579468
-1.5609030723571777 -1.169753909111023 -1.169753909111023