# vtk DataFile Version 4.0
 
ASCII
DATASET UNSTRUCTURED_GRID
POINTS 51 float
0.0034458015579730272 0.0014345935778692365 0.007162618450820447
0.00369006278924644 -0.0010180081008002162 0.010672157630324364
0.0038282745517790313 -0.00276714819483459 0.014356879517436028
0.0037079283501952887 -0.004153081215918064 0.018092939630150795
0.003376203589141369 -0.00526252668350935 0.021848777309060097
0.0030025020241737366 -0.0063329110853374004 0.025537975132465366
0.002778564812615514 -0.00771721312776208 0.029032059013843536
0.0027836053632199764 -0.009225528687238693 0.03240014612674713
0.0029529223684221506 -0.010545284487307072 0.03575601056218147
0.003183003049343825 -0.011934502981603146 0.03900573402643204
0.0033991164527833466 -0.01330520212650299 0.042181339114904404
0.0035584971774369474 -0.014536923728883266 0.04532667249441147
0.0036438601091504097 -0.015709228813648224 0.04841277375817299
0.003657505614683032 -0.01690615527331829 0.05140905827283859
0.003614672925323248 -0.018121331930160522 0.054317843168973916
0.0035364592913538218 -0.01930186152458191 0.05715838074684143
0.003444118425250053 -0.020398154854774475 0.05994872376322747
0.0033548057544976473 -0.02139800228178501 0.06269330531358719
0.0032793087884783745 -0.022333284839987755 0.0653805360198021
0.0032226084731519227 -0.023250650614500046 0.06799343228340149
0.003185397945344448 -0.024180585518479347 0.07052089273929596
0.0031655679922550917 -0.025123082101345062 0.0729629248380661
0.0031594964675605297 -0.026058193296194077 0.07532679289579391
0.0031630429439246655 -0.026962710544466972 0.07762093096971512
0.003172241384163499 -0.02781899832189083 0.07985177636146545
0.0031837469432502985 -0.028616368770599365 0.08202320337295532
0.003195086726918816 -0.02935066632926464 0.0841367244720459
0.0032047536224126816 -0.03002355992794037 0.08619174361228943
0.0032121820840984583 -0.030641619116067886 0.0881858617067337
0.003217642894014716 -0.031215151771903038 0.09011533111333847
0.0032219537533819675 -0.03175577521324158 0.09197592735290527
0.0032260718289762735 -0.032273124903440475 0.09376412630081177
0.003230798291042447 -0.03277278691530228 0.09547790884971619
0.0032366192899644375 -0.033255498856306076 0.09711700677871704
0.0032436484470963474 -0.0337173156440258 0.09868285804986954
0.003251639194786548 -0.03415042161941528 0.1001782938838005
0.0032600469421595335 -0.03454430773854256 0.10160715132951736
0.003268117550760508 -0.03488795831799507 0.10297343134880065
0.0032749890815466647 -0.035175103694200516 0.10427942872047426
0.0032797926105558872 -0.03540855273604393 0.10552410781383514
0.003281744895502925 -0.035600610077381134 0.10670299082994461
0.0032802252098917965 -0.03577079251408577 0.10780898481607437
0.0032748340163379903 -0.03594278544187546 0.10883346199989317
0.0032654285896569495 -0.03614536300301552 0.10976595431566238
0.003252137918025255 -0.036413561552762985 0.11059369891881944
0.0032353585120290518 -0.03678305447101593 0.11130371689796448
0.0032157283276319504 -0.037281230092048645 0.11188604682683945
0.0031940888147801156 -0.03791896253824234 0.11233672499656677
0.003171431832015514 -0.038685400038957596 0.11265970021486281
0.003148839809000492 -0.039546795189380646 0.11286725848913193
0.00312742218375206 -0.0404493473470211 0.1129789724946022

CELLS 50 150
2 0 1
2 1 2
2 2 3
2 3 4
2 4 5
2 5 6
2 6 7
2 7 8
2 8 9
2 9 10
2 10 11
2 11 12
2 12 13
2 13 14
2 14 15
2 15 16
2 16 17
2 17 18
2 18 19
2 19 20
2 20 21
2 21 22
2 22 23
2 23 24
2 24 25
2 25 26
2 26 27
2 27 28
2 28 29
2 29 30
2 30 31
2 31 32
2 32 33
2 33 34
2 34 35
2 35 36
2 36 37
2 37 38
2 38 39
2 39 40
2 40 41
2 41 42
2 42 43
2 43 44
2 44 45
2 45 46
2 46 47
2 47 48
2 48 49
2 49 50

CELL_TYPES 50
4
4
4
4
4
4
4
4
4
4
4
4
4
4
4
4
4
4
4
4
4
4
4
4
4
4
4
4
4
4
4
4
4
4
4
4
4
4
4
4
4
4
4
4
4
4
4
4
4
4

POINT_DATA 51

SCALARS zone float
LOOKUP_TABLE default
1.0
1.0
1.0
1.0
1.0
1.0
1.0
1.0
1.0
1.0
1.0
1.0
1.0
1.0
1.0
1.0
1.0
1.0
1.0
1.0
1.0
1.0
1.0
1.0
1.0
1.0
1.0
1.0
1.0
1.0
1.0
1.0
1.0
1.0
1.0
1.0
1.0
1.0
1.0
1.0
1.0
1.0
1.0
1.0
1.0
1.0
1.0
1.0
1.0
1.0
1.0

VECTORS normals float
0.00012213067384436727 -0.0012263008393347263 0.0017547695897519588
0.00019123655511066318 -0.002100870944559574 0.003597130300477147
8.932776836445555e-6 -0.001567536499351263 0.0037103912327438593
-0.0002260355104226619 -0.00124768924433738 0.003745949128642678
-0.0003527131921146065 -0.0010899151675403118 0.003722517052665353
-0.00029881938826292753 -0.0012273432221263647 0.0035916403867304325
-0.0001094483450287953 -0.0014463089173659682 0.003431086428463459
8.717876335140318e-5 -0.0014140355633571744 0.003361976006999612
0.00019969894492533058 -0.0013544870307669044 0.003302793018519879
0.0002230970421805978 -0.0013799590524286032 0.0032126649748533964
0.0001877470058389008 -0.0013012104900553823 0.0031604699324816465
0.00012237193004693836 -0.0012020134599879384 0.00311571778729558
4.9504207709105685e-5 -0.001184615190140903 0.0030411933548748493
-1.4593665582651738e-5 -0.0012060514418408275 0.0029525342397391796
-6.0523194406414405e-5 -0.0011978535912930965 0.0028746610041707754
-8.52772718644701e-5 -0.0011384111130610108 0.0028154393658041954
-9.082671022042632e-5 -0.0010480704950168729 0.002767463680356741
-8.240483293775469e-5 -0.0009675651090219616 0.0027159082237631083
-6.609866250073537e-5 -0.0009263238171115518 0.0026500618550926447
-4.695540701504797e-5 -0.0009236510377377272 0.002570177661255002
-2.8520251362351697e-5 -0.0009362163254991174 0.0024847472086548805
-1.2950749805895612e-5 -0.00093880295753479 0.0024029489140957594
-1.2625629324247711e-6 -0.000919813523069024 0.002329003531485796
6.37255334368092e-6 -0.0008804034441709518 0.0022624905686825514
1.0352104254707228e-5 -0.0008268294623121619 0.0022011329419910908
1.1422682291595265e-5 -0.0007658335380256176 0.0021424766164273024
1.050324772222666e-5 -0.0007035949965938926 0.0020842726808041334
8.547682227799669e-6 -0.0006454762769863009 0.00202456908300519
6.444628070312319e-6 -0.0005957962712273002 0.001961794216185808
4.885740509052994e-6 -0.0005570774665102363 0.0018950296798720956
4.214472937746905e-6 -0.0005289872642606497 0.0018243967788293956
4.422250640345737e-6 -0.0005085071315988898 0.0017509938916191457
5.273810074868379e-6 -0.0004911859286949039 0.001676441403105855
6.425153969757957e-6 -0.00047226375318132335 0.001602471456862986
7.509945589845301e-6 -0.0004474619345273823 0.0015306416898965836
8.1992238847306e-6 -0.000413496745750308 0.001462146989069879
8.239160706580151e-6 -0.00036876919330097735 0.001397569547407329
7.471068784070667e-6 -0.0003153964935336262 0.0013361385790631175
5.837506250827573e-6 -0.0002602954627946019 0.0012753367191180587
3.3778785564209097e-6 -0.0002127540501533076 0.001211783499456942
2.163614567507466e-7 -0.0001811207621358335 0.0011424400145187974
-3.455363639659481e-6 -0.0001710876967990771 0.0010652347700670362
-7.398393336188747e-6 -0.0001872852153610438 0.0009784824214875698
-1.1348053703841288e-5 -0.00023538760433439163 0.0008801175863482058
-1.5035005162644666e-5 -0.0003188455302733928 0.0007688844343647361
-1.8204780644737184e-5 -0.00043383511365391314 0.0006461746525019407
-2.06348231586162e-5 -0.0005679546156898141 0.0005165021866559982
-2.214833330071997e-5 -0.0007020851480774581 0.00038682567537762225
-2.2624490156886168e-5 -0.0008139156270772219 0.00026526572764851153
-2.2004807760822587e-5 -0.0008819734794087707 0.0001596377114765346
-1.070886446541408e-5 -0.00045127680641599 5.5859331041574485e-5

CELL_DATA 50

VECTORS liftinglineloading               float
-0.27177613973617554 0.17464624345302582 0.08143887668848038
-0.337785005569458 0.21329061686992645 0.09945904463529587
-0.3244532346725464 0.14479048550128937 0.06751691550016403
0.09326004236936569 0.08922619372606277 0.04160685837268829
0.03124813176691532 0.039629340171813965 0.018479464575648308
-0.022056056186556816 -0.0060539706610143185 -0.0028230128809809685
0.04097055271267891 -0.003949958365410566 -0.0018418957479298115
0.0009769327007234097 -0.025257814675569534 -0.011777913197875023
-0.7445927858352661 -0.2145465761423111 -0.10004471242427826
-1.5424469709396362 -0.4313055574893951 -0.20112109184265137
-2.1598572731018066 -0.6395243406295776 -0.2982150912284851
-2.8657569885253906 -0.8751333355903627 -0.4080813527107239
-3.3228859901428223 -1.035715103149414 -0.4829618930816651
-3.691054821014404 -1.1453553438186646 -0.5340880155563354
-3.9222700595855713 -1.2120908498764038 -0.5652072429656982
-4.0773024559021 -1.2644798755645752 -0.5896366238594055
-4.072996616363525 -1.2296899557113647 -0.5734138488769531
-4.279362201690674 -1.2790933847427368 -0.5964509844779968
-4.546273231506348 -1.3813668489456177 -0.6441419720649719
-5.085729122161865 -1.4530278444290161 -0.6775580048561096
-5.720538139343262 -1.5543508529663086 -0.7248056530952454
-6.684495925903321 -1.6829360723495481 -0.7847659587860107
-7.979660987854004 -1.8315906524658205 -0.8540847897529602
-9.34144115447998 -1.8954238891601565 -0.8838506937026978
-11.35424518585205 -2.1099133491516113 -0.9838687181472777
-13.494953155517578 -2.2235870361328125 -1.036875605583191
-15.502120971679686 -2.3027427196502686 -1.0737866163253784
-18.30793571472168 -2.4346773624420166 -1.1353086233139038
-20.164718627929688 -2.422288179397583 -1.1295315027236938
-21.868562698364258 -2.361222743988037 -1.1010563373565674
-22.978792190551758 -2.217663526535034 -1.0341135263442993
-24.04875946044922 -2.1793551445007324 -1.0162500143051147
-24.77339744567871 -2.0582940578460693 -0.9597983360290527
-25.235445022583008 -1.785659670829773 -0.8326668143272399
-25.52155113220215 -1.6941053867340088 -0.7899743318557739
-25.524715423583984 -1.576254963874817 -0.7350197434425354
-25.371511459350586 -1.4587068557739258 -0.6802061796188354
-24.5615177154541 -1.3820865154266357 -0.6444775462150574
-23.98404884338379 -1.328632116317749 -0.6195513606071472
-23.50493621826172 -1.262441635131836 -0.5886861681938171
-23.684764862060547 -1.1540162563323975 -0.5381265878677368
-23.784671783447266 -1.1505905389785767 -0.5365291833877563
-17.68604278564453 -1.2720013856887817 -0.5931439995765686
-13.513143539428711 -1.2795761823654175 -0.5966761708259583
-10.296713829040527 -1.5203471183776855 -0.7089495062828064
-8.267057418823242 -1.5812857151031494 -0.7373656034469604
-6.27006721496582 -1.5893218517303467 -0.7411129474639893
-4.586746692657471 -1.5877083539962769 -0.7403606176376343
-2.975616455078125 -1.5696815252304077 -0.7319545149803162
-1.5453530550003052 -1.5437757968902588 -0.7198745012283325