# vtk DataFile Version 4.0
 
ASCII
DATASET UNSTRUCTURED_GRID
POINTS 51 float
0.0034458015579730272 -0.002933159004896879 0.006690122652798891
0.00369006278924644 -0.006955201737582684 0.008158214390277863
0.0038282745517790313 -0.010501482523977757 0.010173295624554157
0.0037079283501952887 -0.013779688626527788 0.012438759207725525
0.003376203589141369 -0.016842752695083618 0.014879009686410427
0.0030025020241737366 -0.019835596904158592 0.017287075519561768
0.002778564812615514 -0.022973675280809402 0.019355257973074913
0.0027836053632199764 -0.026141071692109105 0.02124910056591034
0.0029529223684221506 -0.029146995395421982 0.023241082206368446
0.003183003049343825 -0.03214894235134125 0.02510627545416355
0.0033991164527833466 -0.03509320691227913 0.026921380311250683
0.0035584971774369474 -0.03790626302361488 0.028791399672627446
0.0036438601091504097 -0.04063667356967926 0.030646979808807373
0.003657505614683032 -0.04333573579788208 0.032414864748716354
0.003614672925323248 -0.04599956050515175 0.03410060331225395
0.0035364592913538218 -0.0485958606004715 0.035750310868024826
0.003444118425250053 -0.05109436437487603 0.03740721940994263
0.0033548057544976473 -0.0534876212477684 0.039081960916519165
0.0032793087884783745 -0.05579509213566781 0.04074675589799881
0.0032226084731519227 -0.05804524943232537 0.04236093536019325
0.003185397945344448 -0.060256700962781906 0.04389791935682297
0.0031655679922550917 -0.06242943927645683 0.04535772278904915
0.0031594964675605297 -0.06455129384994507 0.04675773158669472
0.0031630429439246655 -0.06660810112953186 0.048118170350790024
0.003172241384163499 -0.06858908385038376 0.04945442080497742
0.0031837469432502985 -0.07048773020505905 0.05077579617500306
0.003195086726918816 -0.07230149954557419 0.05208592116832733
0.0032047536224126816 -0.07403141260147095 0.05338333919644355
0.0032121820840984583 -0.07568147778511047 0.054662320762872696
0.003217642894014716 -0.07725799083709717 0.055913884192705154
0.0032219537533819675 -0.07876802980899811 0.05712790414690971
0.0032260718289762735 -0.08021748811006546 0.058295972645282745
0.003230798291042447 -0.08160977810621262 0.05941322818398476
0.0032366192899644375 -0.0829453393816948 0.06047902628779411
0.0032436484470963474 -0.08422176539897919 0.061496805399656296
0.003251639194786548 -0.08543429523706436 0.062473375350236886
0.0032600469421595335 -0.08657650649547577 0.06341790407896042
0.003268117550760508 -0.08764167875051498 0.06433998793363571
0.0032749890815466647 -0.08862597495317459 0.06524509191513062
0.0032797926105558872 -0.08953113108873367 0.06613077968358994
0.003281744895502925 -0.09036463499069214 0.06698630750179291
0.0032802252098917965 -0.09113841503858566 0.06779466569423676
0.0032748340163379903 -0.09186691790819168 0.068535216152668
0.0032654285896569495 -0.09256771206855774 0.0691828727722168
0.003252137918025255 -0.09326218068599701 0.06970709562301636
0.0032353585120290518 -0.0939721018075943 0.07007677853107452
0.0032157283276319504 -0.0947141945362091 0.07026804983615875
0.0031940888147801156 -0.09549509733915329 0.07027143239974976
0.003171431832015514 -0.09630817174911499 0.07009638845920563
0.003148839809000492 -0.0971328392624855 0.06977233290672302
0.00312742218375206 -0.0979362428188324 0.06934616714715958

CELLS 50 150
2 0 1
2 1 2
2 2 3
2 3 4
2 4 5
2 5 6
2 6 7
2 7 8
2 8 9
2 9 10
2 10 11
2 11 12
2 12 13
2 13 14
2 14 15
2 15 16
2 16 17
2 17 18
2 18 19
2 19 20
2 20 21
2 21 22
2 22 23
2 23 24
2 24 25
2 25 26
2 26 27
2 27 28
2 28 29
2 29 30
2 30 31
2 31 32
2 32 33
2 33 34
2 34 35
2 35 36
2 36 37
2 37 38
2 38 39
2 39 40
2 40 41
2 41 42
2 42 43
2 43 44
2 44 45
2 45 46
2 46 47
2 47 48
2 48 49
2 49 50

CELL_TYPES 50
4
4
4
4
4
4
4
4
4
4
4
4
4
4
4
4
4
4
4
4
4
4
4
4
4
4
4
4
4
4
4
4
4
4
4
4
4
4
4
4
4
4
4
4
4
4
4
4
4
4

POINT_DATA 51

SCALARS zone float
LOOKUP_TABLE default
1.0
1.0
1.0
1.0
1.0
1.0
1.0
1.0
1.0
1.0
1.0
1.0
1.0
1.0
1.0
1.0
1.0
1.0
1.0
1.0
1.0
1.0
1.0
1.0
1.0
1.0
1.0
1.0
1.0
1.0
1.0
1.0
1.0
1.0
1.0
1.0
1.0
1.0
1.0
1.0
1.0
1.0
1.0
1.0
1.0
1.0
1.0
1.0
1.0
1.0
1.0

VECTORS normals float
0.00012213067384436727 -0.002011021366342902 0.0007340458105318248
0.00019123655511066318 -0.003784161759540439 0.0017415866022929547
8.932776836445555e-6 -0.0034122436773031954 0.002140272408723831
-0.0002260355104226619 -0.0031706353183835745 0.0023528567980974913
-0.0003527131921146065 -0.0030279543716460466 0.0024241579230874777
-0.00029881938826292753 -0.0030654610600322485 0.0022381243761628866
-0.0001094483450287953 -0.0031527371611446142 0.0019810127560049295
8.717876335140318e-5 -0.0030866602901369333 0.0019429120002314448
0.00019969894492533058 -0.003003935096785426 0.0019285876769572496
0.0002230970421805978 -0.0029731050599366426 0.0018401490524411204
0.0001877470058389008 -0.002878660336136818 0.0018425617599859834
0.00012237193004693836 -0.0027717340271919966 0.001862799981608987
4.9504207709105685e-5 -0.0027147368527948856 0.001811732305213809
-1.4593665582651738e-5 -0.002681443467736244 0.0017268117517232895
-6.0523194406414405e-5 -0.002630061935633421 0.0016677238745614884
-8.52772718644701e-5 -0.0025474014692008495 0.0016533070011064412
-9.082671022042632e-5 -0.0024458810221403837 0.0016658249078318475
-8.240483293775469e-5 -0.0023503638803958893 0.001669769175350666
-6.609866250073537e-5 -0.002278813160955906 0.0016394860576838253
-4.695540701504797e-5 -0.0022308039478957653 0.0015755818458274007
-2.8520251362351697e-5 -0.002192096086218953 0.0014983941800892353
-1.2950749805895612e-5 -0.002147297142073512 0.0014299051836133003
-1.2625629324247711e-6 -0.002089328598231077 0.0013802245957776904
6.37255334368092e-6 -0.0020188954658806324 0.001348345191217959
1.0352104254707228e-5 -0.001939816982485354 0.0013288126792758703
1.1422682291595265e-5 -0.0018562081968411805 0.0013157500652596354
1.050324772222666e-5 -0.0017718409653753042 0.0013037706958130002
8.547682227799669e-6 -0.0016899884212762117 0.0012882000301033258
6.444628070312319e-6 -0.001613286673091352 0.0012652730802074075
4.885740509052994e-6 -0.0015432755462825298 0.001232790993526578
4.214472937746905e-6 -0.001479752012528479 0.0011910437606275082
4.422250640345737e-6 -0.001420873566530645 0.0011426626006141305
5.273810074868379e-6 -0.0013639231910929084 0.0010915277525782585
6.425153969757957e-6 -0.0013059957418590784 0.0010417884914204478
7.509945589845301e-6 -0.0012444793246686459 0.0009971746476367116
8.1992238847306e-6 -0.0011773697333410382 0.0009605486993677915
8.239160706580151e-6 -0.0011036909418180585 0.0009333046036772431
7.471068784070667e-6 -0.0010247352765873075 0.0009135966538451612
5.837506250827573e-6 -0.0009447246557101607 0.0008953954093158244
3.3778785564209097e-6 -0.0008693283307366072 0.0008706041844561695
2.163614567507466e-7 -0.0008036421495489776 0.0008319455082528293
-3.455363639659481e-6 -0.0007511404110118747 0.0007744574104435742
-7.398393336188747e-6 -0.0007146495045162737 0.0006941034807823598
-1.1348053703841288e-5 -0.0006976329605095088 0.0005859373486600816
-1.5035005162644666e-5 -0.0007021969649940729 0.0004469509585760534
-1.8204780644737184e-5 -0.0007260074489749968 0.00028047768864780664
-2.06348231586162e-5 -0.0007614946807734668 9.732841135701165e-5
-2.214833330071997e-5 -0.0007969885482452811 -8.583044109400362e-5
-2.2624490156886168e-5 -0.0008188708452507855 -0.000249549892032519
-2.2004807760822587e-5 -0.0008140348363667725 -0.0003751116746570915
-1.070886446541408e-5 -0.00040170393185690045 -0.00021308446594048291

CELL_DATA 50

VECTORS liftinglineloading               float
-0.33026760816574097 -0.12068988382816316 -0.20904101431369781
-0.3765338659286499 -0.31101858615875244 -0.5386999845504761
-0.473850429058075 -0.44140201807022095 -0.7645307183265686
0.21878297626972198 -0.02103692665696144 -0.0364370234310627
0.7822760343551636 -0.0555904284119606 -0.09628544747829437
1.2152153253555298 -0.058869026601314545 -0.10196414589881897
0.9695556163787842 -0.020138004794716835 -0.03488004952669144
0.43715301156044006 0.006729499436914921 0.011655835434794426
-0.4550774991512298 -0.12079866975545883 -0.20922942459583282
-1.4998289346694946 -0.23625093698501587 -0.4091986417770385
-2.2272427082061768 -0.314375102519989 -0.5445136427879333
-2.407968759536743 -0.37973108887672424 -0.6577135324478149
-2.6020944118499756 -0.4365155100822448 -0.7560670375823975
-2.8565683364868164 -0.47998893260955816 -0.8313652276992798
-3.2813367843627934 -0.5394109487533569 -0.9342871904373169
-3.869596958160401 -0.6123443245887756 -1.0606114864349365
-4.689994812011719 -0.6767730116844177 -1.1722052097320557
-5.6746015548706055 -0.777096152305603 -1.3459700345993042
-7.198695659637452 -0.8968155980110167 -1.5533301830291748
-8.626858711242676 -0.9727208614349364 -1.684801936149597
-10.217044830322266 -1.057948112487793 -1.832419753074646
-11.906804084777832 -1.1267009973526 -1.9515033960342407
-13.816061973571777 -1.1971625089645386 -2.0735464096069336
-14.725666999816895 -1.1758580207824707 -2.0366458892822266
-16.4091796875 -1.2370530366897583 -2.142638683319092
-17.839054107666016 -1.2437673807144165 -2.154268264770508
-19.362323760986328 -1.2615612745285034 -2.1850881576538086
-21.22496795654297 -1.2765873670578003 -2.2111141681671143
-21.860645294189453 -1.2384473085403442 -2.1450536251068115
-23.254131317138672 -1.2065417766571045 -2.0897915363311768
-23.329030990600586 -1.1368690729141235 -1.9691151380538943
-23.604806900024414 -1.1366336345672607 -1.9687072038650513
-23.64444923400879 -1.0883671045303345 -1.8851070404052734
-23.542016983032227 -0.9611142873764038 -1.6646988391876218
-23.3373966217041 -0.9268164634704591 -1.6052932739257812
-22.930023193359375 -0.8759989142417909 -1.5172746181488037
-22.396162033081055 -0.8102300763130188 -1.4033596515655518
-21.383094787597656 -0.7661816477775574 -1.3270655870437622
-20.520112991333008 -0.7367305755615234 -1.2760547399520874
-19.633201599121094 -0.6978972554206848 -1.2087935209274292
-18.820695877075195 -0.6461791396141052 -1.1192151308059692
-17.074920654296875 -0.6348037123680115 -1.0995122194290161
-14.530171394348145 -0.6804149746894836 -1.1785132884979248
-13.26089096069336 -0.6816397905349731 -1.1806347370147705
-11.331384658813477 -0.7935276627540588 -1.3744301795959473
-10.408385276794434 -0.8204998373985292 -1.4211474657058716
-7.986852169036865 -0.8154439330101012 -1.4123903512954712
-5.41291618347168 -0.8119137287139893 -1.4062758684158325
-3.372328042984009 -0.7985594868659973 -1.3831455707550049
-1.7185192108154297 -0.7808351516723633 -1.35244619846344