# vtk DataFile Version 4.0
 
ASCII
DATASET UNSTRUCTURED_GRID
POINTS 51 float
0.0034458015579730272 -0.005485713016241789 0.004823703784495592
0.00369006278924644 -0.009751363657414913 0.004454458132386208
0.0038282745517790313 -0.013816996477544308 0.004782019183039665
0.0037079283501952887 -0.01774548552930355 0.005449796095490456
0.003376203589141369 -0.021552858874201775 0.00636690715327859
0.0030025020241737366 -0.02528299018740654 0.007284525316208602
0.002778564812615514 -0.029001105576753613 0.007832726463675499
0.0027836053632199764 -0.03267211467027664 0.008210531435906887
0.0029529223684221506 -0.036238256841897964 0.008745521306991577
0.003183003049343825 -0.0397472083568573 0.009167283773422241
0.0033991164527833466 -0.04318271204829216 0.009568027220666409
0.0035584971774369474 -0.046522513031959534 0.010073990561068058
0.0036438601091504097 -0.04978130757808685 0.010601796209812164
0.003657505614683032 -0.0529746301472187 0.01106337085366249
0.003614672925323248 -0.056101299822330475 0.011465388350188732
0.0035364592913538218 -0.05915154144167901 0.011863288469612598
0.003444118425250053 -0.06211619451642037 0.012309041805565357
0.0033548057544976473 -0.0649930015206337 0.012815441004931928
0.0032793087884783745 -0.06778784841299057 0.013349077664315699
0.0032226084731519227 -0.07050936669111252 0.013861062005162239
0.003185397945344448 -0.07316318154335022 0.01431944500654936
0.0031655679922550917 -0.07574929296970367 0.01472423505038023
0.0031594964675605297 -0.0782640129327774 0.015096339397132398
0.0031630429439246655 -0.08070305734872818 0.015460074879229069
0.003172241384163499 -0.08306316286325455 0.01583392731845379
0.0031837469432502985 -0.08534236252307892 0.016229096800088882
0.003195086726918816 -0.08753987401723862 0.016649940982460976
0.0032047536224126816 -0.08965601772069931 0.017094707116484642
0.0032121820840984583 -0.0916920080780983 0.017556512728333473
0.003217642894014716 -0.09364974498748779 0.01802455261349678
0.0032219537533819675 -0.09553137421607971 0.01848665438592434
0.0032260718289762735 -0.09733867645263672 0.01893271692097187
0.003230798291042447 -0.09907269477844238 0.01935688965022564
0.0032366192899644375 -0.10073354840278625 0.019758399575948715
0.0032436484470963474 -0.10232051461935045 0.020141376182436943
0.003251639194786548 -0.10383215546607971 0.02051401324570179
0.0032600469421595335 -0.1052665263414383 0.020887324586510658
0.003268117550760508 -0.10662158578634261 0.02127285674214363
0.0032749890815466647 -0.10789618641138077 0.021677181124687195
0.0032797926105558872 -0.10909083485603333 0.022097347304224968
0.003281744895502925 -0.11020781099796295 0.022520463913679123
0.0032802252098917965 -0.11125071346759796 0.022926077246665955
0.0032748340163379903 -0.11222393810749054 0.02328936569392681
0.0032654285896569495 -0.1131327822804451 0.023580173030495644
0.003252137918025255 -0.11398373544216156 0.023761780932545662
0.0032353585120290518 -0.114783376455307 0.023796800523996353
0.0032157283276319504 -0.11553677171468735 0.023656530305743217
0.0031940888147801156 -0.11624594032764435 0.02332957647740841
0.003171431832015514 -0.11690886318683623 0.022827308624982834
0.003148839809000492 -0.1175193041563034 0.022185098379850388
0.00312742218375206 -0.11806733906269072 0.021459324285387993

CELLS 50 150
2 0 1
2 1 2
2 2 3
2 3 4
2 4 5
2 5 6
2 6 7
2 7 8
2 8 9
2 9 10
2 10 11
2 11 12
2 12 13
2 13 14
2 14 15
2 15 16
2 16 17
2 17 18
2 18 19
2 19 20
2 20 21
2 21 22
2 22 23
2 23 24
2 24 25
2 25 26
2 26 27
2 27 28
2 28 29
2 29 30
2 30 31
2 31 32
2 32 33
2 33 34
2 34 35
2 35 36
2 36 37
2 37 38
2 38 39
2 39 40
2 40 41
2 41 42
2 42 43
2 43 44
2 44 45
2 45 46
2 46 47
2 47 48
2 48 49
2 49 50

CELL_TYPES 50
4
4
4
4
4
4
4
4
4
4
4
4
4
4
4
4
4
4
4
4
4
4
4
4
4
4
4
4
4
4
4
4
4
4
4
4
4
4
4
4
4
4
4
4
4
4
4
4
4
4

POINT_DATA 51

SCALARS zone float
LOOKUP_TABLE default
1.0
1.0
1.0
1.0
1.0
1.0
1.0
1.0
1.0
1.0
1.0
1.0
1.0
1.0
1.0
1.0
1.0
1.0
1.0
1.0
1.0
1.0
1.0
1.0
1.0
1.0
1.0
1.0
1.0
1.0
1.0
1.0
1.0
1.0
1.0
1.0
1.0
1.0
1.0
1.0
1.0
1.0
1.0
1.0
1.0
1.0
1.0
1.0
1.0
1.0
1.0

VECTORS normals float
0.00012213067384436727 -0.002132825553417206 -0.0001846228988142684
0.00019123655511066318 -0.004165641497820616 -2.084244079014752e-5
8.932776836445555e-6 -0.003997061401605606 0.0004976690979674459
-0.0002260355104226619 -0.0038679316639900208 0.0007924439851194621
-0.0003527131921146065 -0.0037687518633902073 0.000917364377528429
-0.00029881938826292753 -0.003724123351275921 0.0007329098298214376
-0.0001094483450287953 -0.0036945624742656946 0.0004630030016414821
8.717876335140318e-5 -0.0036185744684189554 0.0004563972761388868
0.00019969894492533058 -0.003537546144798398 0.00047837625606916845
0.0002230970421805978 -0.0034722290001809597 0.0004112528695259243
0.0001877470058389008 -0.0033876525703817606 0.00045335365575738257
0.00012237193004693836 -0.003299297532066703 0.0005168847274035215
4.9504207709105685e-5 -0.0032260583247989416 0.0004946897970512509
-1.4593665582651738e-5 -0.00315999542362988 0.00043179592466913164
-6.0523194406414405e-5 -0.0030884561128914356 0.0003999588661827147
-8.52772718644701e-5 -0.0030074475798755884 0.0004218266403768211
-9.082671022042632e-5 -0.0029207291081547737 0.00047607615124434233
-8.240483293775469e-5 -0.002835828112438321 0.0005200181622058153
-6.609866250073537e-5 -0.002758182818070054 0.0005228109075687826
-4.695540701504797e-5 -0.0026876647025346756 0.0004851835838053375
-2.8520251362351697e-5 -0.002619962440803647 0.0004315865226089954
-1.2950749805895612e-5 -0.00255041616037488 0.00038844719529151917
-1.2625629324247711e-6 -0.0024768828880041838 0.00036791982711292803
6.37255334368092e-6 -0.0023995761293917894 0.0003687935823109001
1.0352104254707228e-5 -0.0023196516558527946 0.0003845111350528896
1.1422682291595265e-5 -0.0022383560426533222 0.00040800706483423715
1.050324772222666e-5 -0.0021568306256085634 0.00043280515819787985
8.547682227799669e-6 -0.0020760665647685528 0.00045328575652092695
6.444628070312319e-6 -0.001996861770749092 0.00046492242836393416
4.885740509052994e-6 -0.00191968260332942 0.00046507161459885543
4.214472937746905e-6 -0.001844467595219612 0.0004540819791145622
4.422250640345737e-6 -0.0017706587677821515 0.0004351168754510581
5.273810074868379e-6 -0.0016974337631836536 0.00041284121107310057
6.425153969757957e-6 -0.0016239129472523928 0.0003922433534171432
7.509945589845301e-6 -0.0015493055107071996 0.00037780741695314646
8.1992238847306e-6 -0.0014730048133060336 0.0003729748132172972
8.239160706580151e-6 -0.0013947152765467763 0.0003794212534558028
7.471068784070667e-6 -0.001314828172326088 0.0003949279198423028
5.837506250827573e-6 -0.0012346217408776283 0.00041224592132493854
3.3778785564209097e-6 -0.001155812293291092 0.0004216413071844726
2.163614567507466e-7 -0.0010799424489960074 0.0004143648548051715
-3.455363639659481e-6 -0.001008064253255725 0.00038445109385065734
-7.398393336188747e-6 -0.0009410332422703505 0.00032704745535738766
-1.1348053703841288e-5 -0.0008798979688435793 0.00023620715364813805
-1.5035005162644666e-5 -0.0008252962143160403 0.00010831387771759182
-1.8204780644737184e-5 -0.0007765212212689221 -5.262489503365941e-5
-2.06348231586162e-5 -0.0007312812958844006 -0.00023361205239780245
-2.214833330071997e-5 -0.0006860434077680111 -0.0004146107239648699
-2.2624490156886168e-5 -0.0006366846500895917 -0.0005722387577407062
-2.2004807760822587e-5 -0.0005792370648123324 -0.0006839925772510469
-1.070886446541408e-5 -0.00027401401894167066 -0.00036288751289248466

CELL_DATA 50

VECTORS liftinglineloading               float
-0.036706238985061646 -0.013538619503378868 -0.1547471284866333
-0.1295500546693802 -0.05008869245648384 -0.5725163817405701
-0.5460119247436523 -0.10751526057720186 -1.2289049625396729
1.5933818817138672 -0.002976588672026992 -0.03402256593108177
5.407933712005615 0.005179805215448141 0.05920544639229774
9.758646965026855 0.03666817769408226 0.4191191792488098
7.916649818420409 0.04737464711070061 0.5414946675300598
2.372556686401367 -0.0020301989279687405 -0.023205280303955078
-4.093702793121338 -0.18267178535461426 -2.0879480838775635
-9.743705749511719 -0.30521029233932495 -3.488569736480713
-15.43306636810303 -0.3685871660709381 -4.212970733642578
-18.97779083251953 -0.39022406935691833 -4.4602813720703125
-18.177465438842773 -0.38950878381729126 -4.45210599899292
-16.70224380493164 -0.38843828439712524 -4.4398698806762695
-14.166187286376951 -0.35716569423675537 -4.082422733306885
-11.636139869689941 -0.3094053864479065 -3.536519765853882
-9.296431541442871 -0.25118979811668396 -2.871112585067749
-7.659875392913818 -0.21761192381381989 -2.4873156547546387
-7.286694526672363 -0.21582208573818204 -2.46685791015625
-6.998013496398926 -0.20323984324932098 -2.3230419158935547
-7.737514019012451 -0.21126791834831238 -2.4148032665252686
-9.232271194458008 -0.22705815732479093 -2.5952866077423096
-11.240859985351562 -0.24508905410766604 -2.8013808727264404
-13.213294982910158 -0.25024348497390747 -2.8602962493896484
-15.942114830017092 -0.27416330575942993 -3.1337008476257324
-19.310258865356445 -0.28918957710266113 -3.3054518699645996
-21.219161987304688 -0.28837674856185913 -3.2961614131927486
-24.49896240234375 -0.2975311577320099 -3.4007966518402095
-25.97699546813965 -0.28703388571739197 -3.2808122634887695
-27.921016693115234 -0.27716362476348877 -3.167994737625122
-28.705739974975582 -0.2557624876499176 -2.9233787059783936
-29.378370285034183 -0.24979442358016965 -2.855163335800171
-29.679447174072266 -0.23501226305961612 -2.6862025260925293
-29.669330596923828 -0.20315107703208923 -2.3220274448394775
-29.471843719482422 -0.19256015121936798 -2.200972557067871
-28.978832244873043 -0.179215207695961 -2.0484392642974854
-28.328670501708984 -0.16494232416152954 -1.8852994441986084
-27.322580337524414 -0.1541539877653122 -1.7619881629943848
-26.226367950439453 -0.1476425975561142 -1.687562704086304
-25.163999557495117 -0.13957394659519196 -1.5953373908996582
-24.370668411254883 -0.1277448982000351 -1.4601309299468994
-22.640214920043945 -0.12645980715751648 -1.4454420804977417
-20.775924682617188 -0.13766445219516754 -1.5735118389129639
-18.134225845336914 -0.1361389309167862 -1.556075096130371
-12.792892456054688 -0.15969471633434296 -1.8253190517425537
-10.045074462890625 -0.16520261764526367 -1.8882745504379275
-7.543408393859862 -0.16464877128601074 -1.8819440603256226
-5.454067707061768 -0.16431333124637604 -1.8781100511550903
-3.499490737915039 -0.16132651269435883 -1.8439705371856687
-1.821010947227478 -0.1573581099510193 -1.7986115217208865