# vtk DataFile Version 4.0
 
ASCII
DATASET UNSTRUCTURED_GRID
POINTS 51 float
0.0034458015579730272 -0.0008048712043091655 -0.007260395679622888
0.00369006278924644 0.0019442740594968198 -0.010542822070419788
0.0038282745517790313 0.004007902927696705 -0.014061073772609234
0.0037079283501952887 0.005714180879294872 -0.017662126570940018
0.003376203589141369 0.007146747317165137 -0.021306976675987244
0.0030025020241737366 0.008534593507647514 -0.024888845160603523
0.002778564812615514 0.010218157432973385 -0.028248982504010204
0.0027836053632199764 0.012014281935989857 -0.03147279843688011
0.0029529223684221506 0.0136214978992939 -0.03470086678862572
0.003183003049343825 0.015288662165403366 -0.03781714290380478
0.0033991164527833466 0.016930917277932167 -0.04086120054125786
0.0035584971774369474 0.01843208633363247 -0.043887216597795486
0.0036438601091504097 0.01986890286207199 -0.04685940220952034
0.003657505614683032 0.02132241614162922 -0.04973996430635452
0.003614672925323248 0.022786486893892288 -0.05253177136182785
0.0035364592913538218 0.024210093542933464 -0.055258609354496
0.003444118425250053 0.025545408949255943 -0.05794278159737587
0.0033548057544976473 0.026780659332871437 -0.06058978289365769
0.0032793087884783745 0.02794658951461315 -0.06318527460098267
0.0032226084731519227 0.02908819355070591 -0.06570827215909958
0.003185397945344448 0.030234873294830322 -0.06814506649971008
0.0031655679922550917 0.03138662129640579 -0.07049565762281418
0.0031594964675605297 0.032524194568395615 -0.07276903092861176
0.0031630429439246655 0.03362521901726723 -0.07497560977935791
0.003172241384163499 0.034672681242227554 -0.07712332904338837
0.0031837469432502985 0.035656269639730453 -0.07921699434518814
0.003195086726918816 0.03657197579741478 -0.08125848323106766
0.0032047536224126816 0.037421416491270065 -0.08324703574180603
0.0032121820840984583 0.0382109209895134 -0.08517970144748688
0.003217642894014716 0.03895043581724167 -0.08705183863639832
0.0032219537533819675 0.039651162922382355 -0.0888582319021225
0.0032260718289762735 0.040322400629520416 -0.09059453755617142
0.003230798291042447 0.040969524532556534 -0.09225825220346451
0.0032366192899644375 0.04159325733780861 -0.09384904056787491
0.0032436484470963474 0.042189788073301315 -0.09536867588758469
0.003251639194786548 0.04275158420205116 -0.09682068228721619
0.0032600469421595335 0.04326850548386574 -0.09820976853370667
0.003268117550760508 0.04372992739081383 -0.09954090416431427
0.0032749890815466647 0.04412980005145073 -0.10081689804792404
0.0032797926105558872 0.04447084292769432 -0.1020364984869957
0.003281744895502925 0.044764917343854904 -0.10319415479898453
0.0032802252098917965 0.04503084719181061 -0.10428111255168913
0.0032748340163379903 0.0452914722263813 -0.10528669506311417
0.0032654285896569495 0.045574553310871124 -0.1061979830265045
0.003252137918025255 0.04591387137770653 -0.1069992035627365
0.0032353585120290518 0.0463438406586647 -0.10767432302236556
0.0032157283276319504 0.046890877187252045 -0.10821101069450377
0.0031940888147801156 0.047565460205078125 -0.10860439389944077
0.003171431832015514 0.04835713282227516 -0.1088593378663063
0.003148839809000492 0.0492333360016346 -0.10899103432893753
0.00312742218375206 0.05014219135046005 -0.10902366042137146

CELLS 50 150
2 0 1
2 1 2
2 2 3
2 3 4
2 4 5
2 5 6
2 6 7
2 7 8
2 8 9
2 9 10
2 10 11
2 11 12
2 12 13
2 13 14
2 14 15
2 15 16
2 16 17
2 17 18
2 18 19
2 19 20
2 20 21
2 21 22
2 22 23
2 23 24
2 24 25
2 25 26
2 26 27
2 27 28
2 28 29
2 29 30
2 30 31
2 31 32
2 32 33
2 33 34
2 34 35
2 35 36
2 36 37
2 37 38
2 38 39
2 39 40
2 40 41
2 41 42
2 42 43
2 43 44
2 44 45
2 45 46
2 46 47
2 47 48
2 48 49
2 49 50

CELL_TYPES 50
4
4
4
4
4
4
4
4
4
4
4
4
4
4
4
4
4
4
4
4
4
4
4
4
4
4
4
4
4
4
4
4
4
4
4
4
4
4
4
4
4
4
4
4
4
4
4
4
4
4

POINT_DATA 51

SCALARS zone float
LOOKUP_TABLE default
1.0
1.0
1.0
1.0
1.0
1.0
1.0
1.0
1.0
1.0
1.0
1.0
1.0
1.0
1.0
1.0
1.0
1.0
1.0
1.0
1.0
1.0
1.0
1.0
1.0
1.0
1.0
1.0
1.0
1.0
1.0
1.0
1.0
1.0
1.0
1.0
1.0
1.0
1.0
1.0
1.0
1.0
1.0
1.0
1.0
1.0
1.0
1.0
1.0
1.0
1.0

VECTORS normals float
0.00012213067384436727 0.0013745726319029927 -0.0016412129625678062
0.00019123655511066318 0.002406387124210596 -0.0034003390464931726
8.932776836445555e-6 0.001884953468106687 -0.003559652250260115
-0.0002260355104226619 0.0015694223111495376 -0.0036229512188583612
-0.0003527131921146065 0.0014102064305916429 -0.003613359527662396
-0.00029881938826292753 0.0015357049414888024 -0.0034710031468421225
-0.0001094483450287953 0.0017398440977558494 -0.0032919759396463633
8.717876335140318e-5 0.0017016702331602571 -0.0032259414438158274
0.00019969894492533058 0.0016371902311220765 -0.003172173397615552
0.0002230970421805978 0.0016547100385650992 -0.0030801682732999325
0.0001877470058389008 0.0015717120841145515 -0.0030350354500114918
0.00012237193004693836 0.001468992093577981 -0.0029990992043167353
4.9504207709105685e-5 0.0014451647875830531 -0.002926374552771449
-1.4593665582651738e-5 0.001458792365156114 -0.002836184576153755
-6.0523194406414405e-5 0.0014438385842368007 -0.002759322291240096
-8.52772718644701e-5 0.0013794609112665057 -0.0027055065147578716
-9.082671022042632e-5 0.0012852826621383429 -0.0026655872352421284
-8.240483293775469e-5 0.0012005901662632823 -0.0026212444063276052
-6.609866250073537e-5 0.0011537669925019145 -0.0025592430029064417
-4.695540701504797e-5 0.0011441420065239072 -0.0024798959493637085
-2.8520251362351697e-5 0.0011492137564346194 -0.0023936955258250237
-1.2950749805895612e-5 0.0011446613352745771 -0.002311982912942767
-1.2625629324247711e-6 0.0011192994425073266 -0.0022399737499654293
6.37255334368092e-6 0.0010742422891780734 -0.002177148824557662
1.0352104254707228e-5 0.0010155244963243604 -0.002120693912729621
1.1422682291595265e-5 0.0009496484417468308 -0.0020675770938396454
1.050324772222666e-5 0.0008825739496387541 -0.002015019068494439
8.547682227799669e-6 0.0008194728288799524 -0.0019606081768870354
6.444628070312319e-6 0.0007645107107236981 -0.0019024019129574299
4.885740509052994e-6 0.0007201203843578696 -0.001839266042225063
4.214472937746905e-6 0.0006859809509478509 -0.0017713501583784819
4.422250640345737e-6 0.0006591812707483768 -0.0017000115476548672
5.273810074868379e-6 0.0006354282959364355 -0.0016272523207589982
6.425153969757957e-6 0.0006101312465034425 -0.0015552131226286292
7.509945589845301e-6 0.0005791634321212769 -0.001485818182118237
8.1992238847306e-6 0.0005393577739596367 -0.0014205444604158401
8.239160706580151e-6 0.0004891721182502806 -0.0013601109385490417
7.471068784070667e-6 0.00043064847704954445 -0.0013035655720159411
5.837506250827573e-6 0.0003704578848555684 -0.001247797510586679
3.3778785564209097e-6 0.00031755835516378284 -0.0011886295396834612
2.163614567507466e-7 0.0002800017537083477 -0.0011223070323467255
-3.455363639659481e-6 0.00026327799423597753 -0.0010462700156494975
-7.398393336188747e-6 0.00027185288490727544 -0.0009584359941072763
-1.1348053703841288e-5 0.000311199197312817 -0.0008562530856579542
-1.5035005162644666e-5 0.0003846449253614992 -0.0007381693576462567
-1.8204780644737184e-5 0.0004885020898655057 -0.000605904555413872
-2.06348231586162e-5 0.0006108095403760672 -0.00046503619523718953
-2.214833330071997e-5 0.0007331275846809149 -0.00032416294561699033
-2.2624490156886168e-5 0.0008339378982782364 -0.00019331887597218156
-2.2004807760822587e-5 0.0008925306610763072 -8.216118294512853e-5
-1.070886446541408e-5 0.0004544280236586929 -1.6315403627231717e-5

CELL_DATA 50

VECTORS liftinglineloading               float
-0.1521698385477066 0.05642196536064148 0.03257523477077484
-0.1755811870098114 0.12646344304084778 0.07301370799541473
-0.1834782212972641 0.20558434724807736 0.11869417876005173
0.02904059924185276 0.03245340660214424 0.018736984580755234
0.43311432003974915 0.04133335128426552 0.02386382222175598
1.8099061250686643 -0.03527320176362991 -0.020364994183182716
1.574083685874939 -0.14884771406650543 -0.0859372690320015
-0.3435991704463959 0.3129638433456421 0.1806897521018982
-3.042171001434326 0.9225579500198364 0.5326390862464905
-5.746000289916992 1.434234857559204 0.8280558586120604
-7.675467014312744 1.8420923948287964 1.0635325908660889
-8.899947166442871 2.1284472942352295 1.2288596630096436
-10.227883338928223 2.434293270111084 1.405439853668213
-11.177186012268066 2.6502981185913086 1.530150294303894
-11.985983848571777 2.8201723098754883 1.6282272338867188
-12.078680992126465 2.7965621948242188 1.614595890045166
-12.065936088562012 2.713716745376587 1.5667650699615479
-11.880096435546875 2.664255142211914 1.5382084846496582
-12.191183090209961 2.640329122543335 1.5243947505950928
-12.24521255493164 2.55108380317688 1.4728689193725586
-12.45411205291748 2.5239975452423096 1.4572306871414185
-13.016647338867188 2.5220329761505127 1.4560964107513428
-14.261981964111328 2.5938925743103027 1.497584581375122
-14.567699432373049 2.455084800720215 1.417443871498108
-16.32048988342285 2.595135450363159 1.4983021020889282
-18.679655075073242 2.660628318786621 1.5361145734786987
-20.37299156188965 2.645155906677246 1.5271815061569214
-24.598230361938477 2.704862117767334 1.5616527795791626
-26.0419750213623 2.5660576820373535 1.4815139770507812
-28.03687286376953 2.423293113708496 1.399088978767395
-28.863786697387695 2.188908815383911 1.2637670040130615
-29.938652038574215 2.114255666732788 1.2206661701202393
-30.791320800781254 1.9774529933929443 1.1416831016540527
-31.357057571411133 1.6289154291152952 0.9404547214508057
-31.993173599243164 1.5129119157791138 0.8734800815582275
-32.75385284423828 1.382676124572754 0.7982884645462036
-35.249847412109375 1.3093310594558716 0.7559426426887512
-32.197242736816406 1.2282493114471436 0.709130048751831
-27.72021293640137 1.1947410106658936 0.689784049987793
-24.49280548095703 1.1709235906600952 0.6760330200195312
-21.84493064880371 1.0822675228118896 0.6248474717140198
-18.482526779174805 1.1675682067871094 0.6740958094596863
-15.055440902709963 1.3725944757461548 0.7924677729606628
-12.099434852600098 1.4218156337738037 0.8208855986595154
-9.523049354553223 1.692007899284363 0.976881206035614
-7.501775741577149 1.7736213207244873 1.0240007638931274
-5.715764045715332 1.8016066551208498 1.0401581525802612
-4.188745975494385 1.8022211790084839 1.0405129194259644
-2.800724744796753 1.7914029359817505 1.0342669486999512
-1.4574588537216187 1.7785212993621826 1.026829719543457