# vtk DataFile Version 4.0
 
ASCII
DATASET UNSTRUCTURED_GRID
POINTS 51 float
0.0034458015579730272 -0.006690122652798891 -0.002933159004896879
0.00369006278924644 -0.008158214390277863 -0.006955201737582684
0.0038282745517790313 -0.010173295624554157 -0.010501482523977757
0.0037079283501952887 -0.012438759207725525 -0.013779688626527788
0.003376203589141369 -0.014879009686410427 -0.016842752695083618
0.0030025020241737366 -0.017287075519561768 -0.019835596904158592
0.002778564812615514 -0.019355257973074913 -0.022973675280809402
0.0027836053632199764 -0.02124910056591034 -0.026141071692109105
0.0029529223684221506 -0.023241082206368446 -0.029146995395421982
0.003183003049343825 -0.02510627545416355 -0.03214894235134125
0.0033991164527833466 -0.026921380311250683 -0.03509320691227913
0.0035584971774369474 -0.028791399672627446 -0.03790626302361488
0.0036438601091504097 -0.030646979808807373 -0.04063667356967926
0.003657505614683032 -0.032414864748716354 -0.04333573579788208
0.003614672925323248 -0.03410060331225395 -0.04599956050515175
0.0035364592913538218 -0.035750310868024826 -0.0485958606004715
0.003444118425250053 -0.03740721940994263 -0.05109436437487603
0.0033548057544976473 -0.039081960916519165 -0.0534876212477684
0.0032793087884783745 -0.04074675589799881 -0.05579509213566781
0.0032226084731519227 -0.04236093536019325 -0.05804524943232537
0.003185397945344448 -0.04389791935682297 -0.060256700962781906
0.0031655679922550917 -0.04535772278904915 -0.06242943927645683
0.0031594964675605297 -0.04675773158669472 -0.06455129384994507
0.0031630429439246655 -0.048118170350790024 -0.06660810112953186
0.003172241384163499 -0.04945442080497742 -0.06858908385038376
0.0031837469432502985 -0.05077579617500306 -0.07048773020505905
0.003195086726918816 -0.05208592116832733 -0.07230149954557419
0.0032047536224126816 -0.05338333919644355 -0.07403141260147095
0.0032121820840984583 -0.054662320762872696 -0.07568147778511047
0.003217642894014716 -0.055913884192705154 -0.07725799083709717
0.0032219537533819675 -0.05712790414690971 -0.07876802980899811
0.0032260718289762735 -0.058295972645282745 -0.08021748811006546
0.003230798291042447 -0.05941322818398476 -0.08160977810621262
0.0032366192899644375 -0.06047902628779411 -0.0829453393816948
0.0032436484470963474 -0.061496805399656296 -0.08422176539897919
0.003251639194786548 -0.062473375350236886 -0.08543429523706436
0.0032600469421595335 -0.06341790407896042 -0.08657650649547577
0.003268117550760508 -0.06433998793363571 -0.08764167875051498
0.0032749890815466647 -0.06524509191513062 -0.08862597495317459
0.0032797926105558872 -0.06613077968358994 -0.08953113108873367
0.003281744895502925 -0.06698630750179291 -0.09036463499069214
0.0032802252098917965 -0.06779466569423676 -0.09113841503858566
0.0032748340163379903 -0.068535216152668 -0.09186691790819168
0.0032654285896569495 -0.0691828727722168 -0.09256771206855774
0.003252137918025255 -0.06970709562301636 -0.09326218068599701
0.0032353585120290518 -0.07007677853107452 -0.0939721018075943
0.0032157283276319504 -0.07026804983615875 -0.0947141945362091
0.0031940888147801156 -0.07027143239974976 -0.09549509733915329
0.003171431832015514 -0.07009638845920563 -0.09630817174911499
0.003148839809000492 -0.06977233290672302 -0.0971328392624855
0.00312742218375206 -0.06934616714715958 -0.0979362428188324

CELLS 50 150
2 0 1
2 1 2
2 2 3
2 3 4
2 4 5
2 5 6
2 6 7
2 7 8
2 8 9
2 9 10
2 10 11
2 11 12
2 12 13
2 13 14
2 14 15
2 15 16
2 16 17
2 17 18
2 18 19
2 19 20
2 20 21
2 21 22
2 22 23
2 23 24
2 24 25
2 25 26
2 26 27
2 27 28
2 28 29
2 29 30
2 30 31
2 31 32
2 32 33
2 33 34
2 34 35
2 35 36
2 36 37
2 37 38
2 38 39
2 39 40
2 40 41
2 41 42
2 42 43
2 43 44
2 44 45
2 45 46
2 46 47
2 47 48
2 48 49
2 49 50

CELL_TYPES 50
4
4
4
4
4
4
4
4
4
4
4
4
4
4
4
4
4
4
4
4
4
4
4
4
4
4
4
4
4
4
4
4
4
4
4
4
4
4
4
4
4
4
4
4
4
4
4
4
4
4

POINT_DATA 51

SCALARS zone float
LOOKUP_TABLE default
1.0
1.0
1.0
1.0
1.0
1.0
1.0
1.0
1.0
1.0
1.0
1.0
1.0
1.0
1.0
1.0
1.0
1.0
1.0
1.0
1.0
1.0
1.0
1.0
1.0
1.0
1.0
1.0
1.0
1.0
1.0
1.0
1.0
1.0
1.0
1.0
1.0
1.0
1.0
1.0
1.0
1.0
1.0
1.0
1.0
1.0
1.0
1.0
1.0
1.0
1.0

VECTORS normals float
0.00012213067384436727 -0.0007340458105318248 -0.002011021366342902
0.00019123655511066318 -0.0017415866022929547 -0.003784161759540439
8.932776836445555e-6 -0.002140272408723831 -0.0034122436773031954
-0.0002260355104226619 -0.0023528567980974913 -0.0031706353183835745
-0.0003527131921146065 -0.0024241579230874777 -0.0030279543716460466
-0.00029881938826292753 -0.0022381243761628866 -0.0030654610600322485
-0.0001094483450287953 -0.0019810127560049295 -0.0031527371611446142
8.717876335140318e-5 -0.0019429120002314448 -0.0030866602901369333
0.00019969894492533058 -0.0019285876769572496 -0.003003935096785426
0.0002230970421805978 -0.0018401490524411204 -0.0029731050599366426
0.0001877470058389008 -0.0018425617599859834 -0.002878660336136818
0.00012237193004693836 -0.001862799981608987 -0.0027717340271919966
4.9504207709105685e-5 -0.001811732305213809 -0.0027147368527948856
-1.4593665582651738e-5 -0.0017268117517232895 -0.002681443467736244
-6.0523194406414405e-5 -0.0016677238745614884 -0.002630061935633421
-8.52772718644701e-5 -0.0016533070011064412 -0.0025474014692008495
-9.082671022042632e-5 -0.0016658249078318475 -0.0024458810221403837
-8.240483293775469e-5 -0.001669769175350666 -0.0023503638803958893
-6.609866250073537e-5 -0.0016394860576838253 -0.002278813160955906
-4.695540701504797e-5 -0.0015755818458274007 -0.0022308039478957653
-2.8520251362351697e-5 -0.0014983941800892353 -0.002192096086218953
-1.2950749805895612e-5 -0.0014299051836133003 -0.002147297142073512
-1.2625629324247711e-6 -0.0013802245957776904 -0.002089328598231077
6.37255334368092e-6 -0.001348345191217959 -0.0020188954658806324
1.0352104254707228e-5 -0.0013288126792758703 -0.001939816982485354
1.1422682291595265e-5 -0.0013157500652596354 -0.0018562081968411805
1.050324772222666e-5 -0.0013037706958130002 -0.0017718409653753042
8.547682227799669e-6 -0.0012882000301033258 -0.0016899884212762117
6.444628070312319e-6 -0.0012652730802074075 -0.001613286673091352
4.885740509052994e-6 -0.001232790993526578 -0.0015432755462825298
4.214472937746905e-6 -0.0011910437606275082 -0.001479752012528479
4.422250640345737e-6 -0.0011426626006141305 -0.001420873566530645
5.273810074868379e-6 -0.0010915277525782585 -0.0013639231910929084
6.425153969757957e-6 -0.0010417884914204478 -0.0013059957418590784
7.509945589845301e-6 -0.0009971746476367116 -0.0012444793246686459
8.1992238847306e-6 -0.0009605486993677915 -0.0011773697333410382
8.239160706580151e-6 -0.0009333046036772431 -0.0011036909418180585
7.471068784070667e-6 -0.0009135966538451612 -0.0010247352765873075
5.837506250827573e-6 -0.0008953954093158244 -0.0009447246557101607
3.3778785564209097e-6 -0.0008706041844561695 -0.0008693283307366072
2.163614567507466e-7 -0.0008319455082528293 -0.0008036421495489776
-3.455363639659481e-6 -0.0007744574104435742 -0.0007511404110118747
-7.398393336188747e-6 -0.0006941034807823598 -0.0007146495045162737
-1.1348053703841288e-5 -0.0005859373486600816 -0.0006976329605095088
-1.5035005162644666e-5 -0.0004469509585760534 -0.0007021969649940729
-1.8204780644737184e-5 -0.00028047768864780664 -0.0007260074489749968
-2.06348231586162e-5 -9.732841135701165e-5 -0.0007614946807734668
-2.214833330071997e-5 8.583044109400362e-5 -0.0007969885482452811
-2.2624490156886168e-5 0.000249549892032519 -0.0008188708452507855
-2.2004807760822587e-5 0.0003751116746570915 -0.0008140348363667725
-1.070886446541408e-5 0.00021308446594048291 -0.00040170393185690045

CELL_DATA 50

VECTORS liftinglineloading               float
-0.011197234503924847 0.2078156024217606 -0.11998239904642104
-0.17856554687023163 0.8239325284957886 -0.4756976664066314
-0.9493821263313293 1.861964225769043 -1.0750055313110352
2.17225980758667 0.13410252332687378 -0.07742413133382797
6.864455699920654 0.3607533872127533 -0.20828106999397278
11.414693832397461 0.6240878701210022 -0.36031728982925415
9.861808776855469 0.43975377082824707 -0.2538919448852539
3.2413923740386963 0.5248651504516602 -0.3030310571193695
-5.206899642944336 2.63773775100708 -1.5228986740112305
-13.932415962219238 4.352316379547119 -2.5128111839294434
-19.586458206176758 5.230731010437012 -3.0199637413024902
-20.791776657104492 5.282352924346924 -3.0497679710388184
-21.631576538085938 5.197590351104736 -3.0008301734924316
-22.383031845092773 4.715115070343018 -2.7222728729248047
-23.90199851989746 4.006082534790039 -2.312912940979004
-24.5757999420166 3.5424327850341797 -2.04522442817688
-23.814029693603516 3.5333707332611084 -2.039992570877075
-22.086454391479492 3.546772956848144 -2.0477302074432373
-19.825733184814453 3.3650379180908203 -1.942805528640747
-17.446016311645508 3.203214645385742 -1.8493767976760862
-15.929544448852539 2.9968178272247314 -1.7302135229110716
-14.830333709716797 2.821838855743408 -1.6291894912719727
-14.105274200439455 2.6963226795196533 -1.556722640991211
-13.165000915527346 2.473764419555664 -1.4282286167144775
-13.34488868713379 2.5255022048950195 -1.458099365234375
-13.625840187072754 2.4933431148529053 -1.4395322799682617
-13.685995101928711 2.4476523399353027 -1.4131526947021484
-14.569830894470215 2.532485246658325 -1.4621310234069824
-14.970084190368652 2.536257743835449 -1.4643090963363647
-14.979248046875 2.4911139011383057 -1.4382452964782715
-15.890590667724611 2.491947889328003 -1.438726782798767
-16.022390365600586 2.406015634536743 -1.3891137838363647
-16.203033447265625 2.2399580478668213 -1.2932403087615967
-16.244050979614258 2.1820149421691895 -1.25978684425354
-15.961660385131836 2.103147268295288 -1.2142527103424072
-15.652428627014162 1.9989213943481445 -1.1540777683258057
-15.188804626464844 1.7868659496307373 -1.0316475629806519
-14.968222618103027 1.6945376396179201 -0.9783417582511903
-14.227785110473631 1.6028668880462646 -0.9254156351089478
-13.625515937805176 1.4954954385757446 -0.8634247183799744
-12.883600234985352 1.4191949367523193 -0.819372534751892
-11.408295631408691 1.3425809144973755 -0.7751394510269165
-9.437341690063477 1.3083101511001587 -0.7553532123565674
-7.992369174957276 1.2558274269104004 -0.7250522971153259
-6.63887357711792 1.288317322731018 -0.7438103556632996
-5.403390884399414 1.3046307563781738 -0.7532289624214172
-4.25291633605957 1.2582327127456665 -0.7264410257339478
-3.2051637172698975 1.2463489770889282 -0.7195799350738525
-2.2002573013305664 1.2145053148269653 -0.7011949419975281
-1.1569114923477173 1.1632205247879028 -0.6715856790542603