# vtk DataFile Version 4.0
[MyVLM domain - lattices] 
ASCII
DATASET UNSTRUCTURED_GRID
POINTS 152 float
0.0018916144324157278 0.008933194281447124 0.0047610988824374305
0.0010688609733395774 0.010646188104886852 0.008659594812418934
0.00045780959861706216 0.012345339402728474 0.01248337872328827
-0.00013255382275044122 0.013895685669038451 0.016256248146225546
-0.0007201482309470062 0.015353892179946363 0.019968211464179823
-0.0011946371146526612 0.01657264881155387 0.023645243426525887
-0.0014108622120167862 0.017252749421708118 0.027340102148918983
-0.0013224843579428829 0.01764363089025045 0.03100880517945934
-0.0010167791708201568 0.018109380239556327 0.034587154152776356
-0.0006138083932142036 0.0184064750913921 0.03811808863455893
-0.00020084691410191335 0.018647361788456062 0.04158178130070733
0.0001698744379422134 0.018973307440198314 0.04495332294833884
0.0004739400232210948 0.019311766014445862 0.04824550540026889
0.0007082255455298663 0.019582175218368858 0.051472533962351116
0.0008836440760600275 0.019796112798715824 0.05463236716545795
0.001017516815515788 0.02001191963541455 0.057714717938379845
0.0011275777072549662 0.020283030360761407 0.060710164313738726
0.0012277625198140337 0.020622797888682598 0.06361635181253829
0.00132638558954348 0.020997910812852693 0.06643915413447911
0.0014271324949937316 0.021359301699121477 0.06918722319207596
0.0015306083418583354 0.02167457976127681 0.07186627035486443
0.0016355657532635378 0.021943009778837154 0.07447642526205216
0.0017398364473795213 0.022184424575789955 0.07701419085166653
0.0018410131526058282 0.022421765175049846 0.07947552200240264
0.001936923789896676 0.022671892208070695 0.08185744573002339
0.0020259353317291845 0.02294422319740041 0.08415830147121216
0.0021071205190511294 0.023241248738550446 0.08637765006678223
0.002180316672546981 0.02355937308712928 0.08851612554348558
0.0022461021518325993 0.02388995914832186 0.09057525085417302
0.0023056987632523672 0.024220626001670464 0.09255720908916727
0.0023607022647827588 0.024537850218966425 0.09446438479373319
0.0024126938092907785 0.024830458704010232 0.09629874808618878
0.0024629658139780817 0.025091850687713777 0.09806146286021773
0.0025123806343549317 0.02532084033306347 0.09975273821088025
0.0025613283706516186 0.025521499597058114 0.10137185614229317
0.0026097549007438213 0.025702324369388987 0.10291731859987878
0.0026572361369983943 0.025874980422978318 0.1043870685931201
0.002703078927872171 0.02605200602139576 0.10577889528785851
0.0027464329900004744 0.026241283404141436 0.10709140883260179
0.0027864017842759935 0.02644145649091624 0.10832484834089469
0.0028221433614242725 0.02664147951850686 0.10948116147881415
0.0028529549202113143 0.026822963749334936 0.11056359067693647
0.002878337166053322 0.0269633159663398 0.11157611972901046
0.0028980365508205295 0.027034736410609474 0.11252365048258946
0.0029120651374179955 0.02700293893739453 0.11341222851005726
0.002920699186668212 0.026832995442543545 0.11424801257856076
0.0029244586304951574 0.026498641987602045 0.1150356337290692
0.002924070395798875 0.025990855988515586 0.11577668288658702
0.0029204190990956736 0.025323265485608315 0.11646875705991093
0.0029144889643634465 0.02453334157833662 0.11710524908320993
0.002907300946956263 0.023679366271927387 0.11767588226647274
0.00810836247161673 -0.007504767351145691 0.00765955502611417
0.011553668218636777 -0.014120731993713432 0.013026671054853006
0.013939669461130968 -0.017907942247027245 0.01781784853311261
0.01522937481955013 -0.01988787169837395 0.02221320081441271
0.015665258855664974 -0.020594048715399882 0.02630680334494271
0.015593919129225274 -0.02057984599516657 0.03019623066158196
0.015346845607040699 -0.02042734200598971 0.03398411890318399
0.015101874093430702 -0.020088768239014385 0.03766204519280945
0.014862026584832213 -0.01934605625078738 0.041191558180236454
0.014573437775420557 -0.01855029069659464 0.04463456356270465
0.01419900620025263 -0.01766997785832913 0.04798550814798892
0.013724365381036831 -0.016623958407056237 0.05123008135666191
0.01315362078947486 -0.015528112828196513 0.05438871604484087
0.012505345722450946 -0.01449304326056623 0.057480914353723156
0.01180775930753689 -0.013526785793360746 0.06050809326265328
0.011093286365047583 -0.012582605645176504 0.06346201216873232
0.010393740257911042 -0.01161292528953978 0.06633428187036754
0.009735935550246806 -0.010606631305703612 0.0691229427716333
0.009138077920677518 -0.009597421367247666 0.07183393668156884
0.008609036340576482 -0.00863365527166728 0.07447579073725416
0.00814976642050338 -0.0077459595009983255 0.07705390521379635
0.007755574555604428 -0.006932087279454745 0.07956788394400474
0.007418476102154011 -0.0061679164566572145 0.08201347354193476
0.007129131854184944 -0.005424994897566331 0.08438565712852018
0.006878194500386411 -0.004679970800931493 0.08668031715115239
0.006657182150182169 -0.003916279825906246 0.08889453286962251
0.006458985770179963 -0.0031239839603614604 0.09102655194425756
0.0062780641109025665 -0.0022992881979706854 0.09307570521305022
0.0061104223268693076 -0.0014438291909200528 0.09504228126193895
0.005953474863152749 -0.0005636675081125789 0.09692734873273981
0.005805707912944253 0.0003330705360887031 0.09873234051392869
0.005666205509444805 0.0012394902278460124 0.10045847232957948
0.0055342952714404255 0.0021520040627508834 0.10210637675351279
0.00540933551352742 0.003071075000950935 0.10367597215336363
0.005290608834437834 0.004001004077079349 0.10516650014068114
0.005177292279709552 0.004949082289244394 0.1065766751157826
0.00506847932631156 0.005924360032780177 0.10790490124978454
0.004963233484525269 0.006935407467024953 0.1091496673923666
0.004860657316914594 0.007984874401470879 0.11031050631062161
0.004759964966983509 0.00906502333992959 0.11138878233389068
0.004660549230250331 0.010157416547458173 0.11238774653230742
0.004562036450887143 0.01123542029919172 0.1133120951501623
0.004464324907751246 0.012267516018097155 0.11416738576297976
0.004367604413995984 0.013216481966327838 0.114960181567411
0.004272356566208671 0.014038304327866596 0.11569824338674385
0.004179336467604936 0.014688215887958142 0.11638946488879076
0.0040895378397703165 0.015130196018995585 0.11704019748206093
0.004004144252868402 0.015345737782094169 0.11765370443921006
0.003924469769049782 0.015339439802071739 0.1182291748986086
0.003851892631895805 0.015140370865731792 0.11876148324884661
0.0037877857699997984 0.014799196611411098 0.11924169577089053
0.007743320934564478 -0.005662139456030424 0.009434921492219736
0.009750835451407484 -0.009136811901825836 0.014209566537450508
0.01097904857723874 -0.010893302095554582 0.01860409686401122
0.011478899871493482 -0.011524522924042088 0.022723059011058953
0.011482843576133887 -0.011449392892524893 0.026640319613784963
0.011277099360266059 -0.011149520721275856 0.03044079928371784
0.011076601566431817 -0.01083149380288171 0.034160924952044834
0.010944054813253213 -0.010318932792449812 0.03776959618142167
0.010834475689590494 -0.009646648188899704 0.041272951002019824
0.010687834577462932 -0.00895087109811539 0.044695010633418374
0.010467392783463586 -0.00815764244593772 0.04802273409537484
0.010159721621587296 -0.007271392531389257 0.051256902569139506
0.009769883138066048 -0.006396190879184187 0.054415866319789
0.009316398088944175 -0.005585149893087031 0.0575089904971173
0.008825537238666154 -0.0048150177351851745 0.06053217517474933
0.008325771798955828 -0.004036455350996608 0.06347672054617727
0.007843045956442817 -0.0032191051920357682 0.06633727375653495
0.007397023565266309 -0.002373931164664814 0.06911576803832799
0.0069993576085374005 -0.0015420021755963291 0.07181944494787802
0.006654268640011457 -0.000763120357199814 0.0744553226750115
0.006360274627930663 -5.20688501556556e-5 0.07702600788629
0.006112194271739797 0.0006034278932864073 0.07952933607144216
0.0059029591836252775 0.0012284319610211469 0.08196088810817925
0.005724989500777071 0.0018473450359533883 0.08431636132143047
0.005571123634166449 0.0024784204406197376 0.08659253715794503
0.005435194951483339 0.0031330850721434664 0.08878740074745432
0.005312323354355712 0.0038163506688354116 0.0909000683852739
0.0051989847672119 0.0045274975085973675 0.09293066697782827
0.005092936560643893 0.0052610118816118065 0.09488016874092207
0.004992993669540767 0.006008335663070659 0.09675008270286325
0.0048986420426550895 0.006760748901847604 0.09854194642630582
0.004809645245740569 0.007512099032939339 0.10025684477446042
0.004725779850404569 0.008260241026485336 0.10189515597396591
0.004646692756112789 0.009007322145526556 0.10345650140441347
0.0045718483267297005 0.00975926038317729 0.10493983756394541
0.004500538231975694 0.010524703969805125 0.10634363953621254
0.004431931687172631 0.011313286117973683 0.107666208725929
0.00436514804027403 0.012131766878878087 0.10890635315367814
0.004299337703246347 0.012979054139907385 0.11006426538837916
0.004233760967175223 0.013843781958948299 0.11114194955228791
0.004167856915631001 0.014705369225973933 0.11214303465039499
0.004101297020272476 0.015536886083442667 0.11307226914317163
0.004034020210264442 0.016306255791278035 0.11393530902534653
0.003966248078606562 0.016975254278823414 0.11473889423188892
0.0038984804281908788 0.01750193687842654 0.11549042073940274
0.003831472592411141 0.017848359143875846 0.11619657917752313
0.0037661969130262725 0.017989662422423364 0.11686175279743366
0.0037037914450811374 0.017921206778327706 0.11748675974499424
0.0036454994082869853 0.017662004883419444 0.11806824757318583
0.003592603139625815 0.017253926285211586 0.11859883355111175

CELLS 100 350
4 0 51 52 1
4 1 52 53 2
4 2 53 54 3
4 3 54 55 4
4 4 55 56 5
4 5 56 57 6
4 6 57 58 7
4 7 58 59 8
4 8 59 60 9
4 9 60 61 10
4 10 61 62 11
4 11 62 63 12
4 12 63 64 13
4 13 64 65 14
4 14 65 66 15
4 15 66 67 16
4 16 67 68 17
4 17 68 69 18
4 18 69 70 19
4 19 70 71 20
4 20 71 72 21
4 21 72 73 22
4 22 73 74 23
4 23 74 75 24
4 24 75 76 25
4 25 76 77 26
4 26 77 78 27
4 27 78 79 28
4 28 79 80 29
4 29 80 81 30
4 30 81 82 31
4 31 82 83 32
4 32 83 84 33
4 33 84 85 34
4 34 85 86 35
4 35 86 87 36
4 36 87 88 37
4 37 88 89 38
4 38 89 90 39
4 39 90 91 40
4 40 91 92 41
4 41 92 93 42
4 42 93 94 43
4 43 94 95 44
4 44 95 96 45
4 45 96 97 46
4 46 97 98 47
4 47 98 99 48
4 48 99 100 49
4 49 100 101 50
1 102
1 103
1 104
1 105
1 106
1 107
1 108
1 109
1 110
1 111
1 112
1 113
1 114
1 115
1 116
1 117
1 118
1 119
1 120
1 121
1 122
1 123
1 124
1 125
1 126
1 127
1 128
1 129
1 130
1 131
1 132
1 133
1 134
1 135
1 136
1 137
1 138
1 139
1 140
1 141
1 142
1 143
1 144
1 145
1 146
1 147
1 148
1 149
1 150
1 151

CELL_TYPES 100
9
9
9
9
9
9
9
9
9
9
9
9
9
9
9
9
9
9
9
9
9
9
9
9
9
9
9
9
9
9
9
9
9
9
9
9
9
9
9
9
9
9
9
9
9
9
9
9
9
9
1
1
1
1
1
1
1
1
1
1
1
1
1
1
1
1
1
1
1
1
1
1
1
1
1
1
1
1
1
1
1
1
1
1
1
1
1
1
1
1
1
1
1
1
1
1
1
1
1
1

CELL_DATA 100

VECTORS S float
-5.17379711321034e-18 -6.49899816886178e-18 9.1610740584772e-19
-3.9702550140510996e-19 -3.1312498014536997e-19 1.70375891955738e-18
2.45457098451e-21 -1.7502949157811e-19 -2.0327621409368198e-18
2.2131770829519998e-20 -9.163600008242e-20 -6.297070346483799e-19
1.5844109925379998e-20 -4.858733676828e-20 -2.038851596784e-19
-7.3621442742e-22 -3.93089114176e-21 -8.41654844085e-21
-1.9922875680709998e-20 3.638457743004e-20 -2.5674615198599998e-21
8.65716102053e-21 -3.377618910734e-20 1.0930727690172e-19
-6.4970561399999996e-24 7.257487099099999e-22 -6.13595576622e-21
1.2488272429704998e-19 7.392753957679999e-21 1.02671384506666e-18
-2.432189649258e-20 -8.096550206409999e-21 -5.9077932517771e-19
-3.315711399129e-20 -3.598722117958e-20 -1.2266118257076599e-18
2.2356315731721e-19 1.8384965839392999e-19 7.20715112493379e-18
4.0213893222737998e-19 4.1453443302462e-19 1.565934575997003e-17
-8.468189890848999e-20 -9.619641652734e-20 -3.6186808720872495e-18
1.0237087679462999e-19 1.1544171998652999e-19 4.5188382374752096e-18
3.0712593110696e-19 3.2558719571611e-19 1.399628205174877e-17
7.999034292506999e-20 7.296850530754e-20 3.57279704596618e-18
-1.8211934201973998e-19 -1.3199860608142e-19 -7.59239310155547e-18
1.4914333797716e-19 8.55477090223e-20 6.1808516370442296e-18
6.9392760790421e-19 2.9001160572643e-19 2.7794376108328136e-17
3.7139601368511997e-19 1.0297801715424999e-19 1.4616599129505728e-17
-3.7574500889823e-19 -5.612279536279e-20 -1.469356144845092e-17
5.1769246255162e-19 1.5507758399899998e-20 2.11539266296789e-17
7.149463972418999e-20 -5.2496751815399996e-21 2.9893480363521e-18
-8.293292477108399e-19 1.3762391628073e-19 -3.672536256026869e-17
-3.2744610931263996e-19 7.760183899280999e-20 -1.540424300005607e-17
-2.6806902394685e-19 7.652808656967e-20 -1.35921014178721e-17
-3.792731892615e-19 1.1842365636799e-19 -2.130137773023427e-17
-9.1584516448722e-19 2.6066504093759e-19 -5.4873711125112264e-17
-3.610294390754e-19 8.42468633963e-20 -2.4353968642808318e-17
-6.898656215021e-20 8.6425893325e-21 -5.16475021881145e-18
-1.1530469458863e-19 9.876504144829999e-21 -1.043841730433544e-17
-4.4182819483983e-19 -7.261978820236999e-20 -4.590422465444471e-17
2.7091994928588e-19 1.3329500318814998e-19 3.1072354685837796e-17
-7.383651551077e-20 -6.640861536895e-20 -9.42227019479317e-18
1.8509934704325998e-19 2.6441011842412996e-19 2.705584843797526e-17
-9.38249080325e-21 -1.842320196108e-20 -1.48247482177744e-18
-6.205065153617e-20 -1.5480374649614e-19 -1.0352121883847309e-17
1.0148273674339e-19 3.1237604335805e-19 1.803407307994218e-17
-9.996183996158e-20 -3.7173898247997e-19 -1.904214253755777e-17
-2.669313825188e-20 -1.0634556976567999e-19 -4.9313457090794796e-18
1.9273194698829998e-20 6.402707843887e-20 2.9485461102210497e-18
-1.2879392837332998e-19 -4.1145135717728e-19 -1.743992753492647e-17
2.9421914227742e-19 7.3546698175154e-19 2.90613461990497e-17
-1.5265855136274998e-19 -3.4542325505370996e-19 -1.286309388084708e-17
7.076992147629e-20 1.4120075645474998e-19 4.99608340091697e-18
-2.8635281960044e-19 -4.855677426480899e-19 -1.64362688665311e-17
2.8578414901673e-19 3.8921906735302997e-19 1.23986763931094e-17
-1.793146037863e-19 -1.4525711641944e-19 -4.47459657300949e-18
-5.17379711321034e-18 -6.49899816886178e-18 9.1610740584772e-19
-3.9702550140510996e-19 -3.1312498014536997e-19 1.70375891955738e-18
2.45457098451e-21 -1.7502949157811e-19 -2.0327621409368198e-18
2.2131770829519998e-20 -9.163600008242e-20 -6.297070346483799e-19
1.5844109925379998e-20 -4.858733676828e-20 -2.038851596784e-19
-7.3621442742e-22 -3.93089114176e-21 -8.41654844085e-21
-1.9922875680709998e-20 3.638457743004e-20 -2.5674615198599998e-21
8.65716102053e-21 -3.377618910734e-20 1.0930727690172e-19
-6.4970561399999996e-24 7.257487099099999e-22 -6.13595576622e-21
1.2488272429704998e-19 7.392753957679999e-21 1.02671384506666e-18
-2.432189649258e-20 -8.096550206409999e-21 -5.9077932517771e-19
-3.315711399129e-20 -3.598722117958e-20 -1.2266118257076599e-18
2.2356315731721e-19 1.8384965839392999e-19 7.20715112493379e-18
4.0213893222737998e-19 4.1453443302462e-19 1.565934575997003e-17
-8.468189890848999e-20 -9.619641652734e-20 -3.6186808720872495e-18
1.0237087679462999e-19 1.1544171998652999e-19 4.5188382374752096e-18
3.0712593110696e-19 3.2558719571611e-19 1.399628205174877e-17
7.999034292506999e-20 7.296850530754e-20 3.57279704596618e-18
-1.8211934201973998e-19 -1.3199860608142e-19 -7.59239310155547e-18
1.4914333797716e-19 8.55477090223e-20 6.1808516370442296e-18
6.9392760790421e-19 2.9001160572643e-19 2.7794376108328136e-17
3.7139601368511997e-19 1.0297801715424999e-19 1.4616599129505728e-17
-3.7574500889823e-19 -5.612279536279e-20 -1.469356144845092e-17
5.1769246255162e-19 1.5507758399899998e-20 2.11539266296789e-17
7.149463972418999e-20 -5.2496751815399996e-21 2.9893480363521e-18
-8.293292477108399e-19 1.3762391628073e-19 -3.672536256026869e-17
-3.2744610931263996e-19 7.760183899280999e-20 -1.540424300005607e-17
-2.6806902394685e-19 7.652808656967e-20 -1.35921014178721e-17
-3.792731892615e-19 1.1842365636799e-19 -2.130137773023427e-17
-9.1584516448722e-19 2.6066504093759e-19 -5.4873711125112264e-17
-3.610294390754e-19 8.42468633963e-20 -2.4353968642808318e-17
-6.898656215021e-20 8.6425893325e-21 -5.16475021881145e-18
-1.1530469458863e-19 9.876504144829999e-21 -1.043841730433544e-17
-4.4182819483983e-19 -7.261978820236999e-20 -4.590422465444471e-17
2.7091994928588e-19 1.3329500318814998e-19 3.1072354685837796e-17
-7.383651551077e-20 -6.640861536895e-20 -9.42227019479317e-18
1.8509934704325998e-19 2.6441011842412996e-19 2.705584843797526e-17
-9.38249080325e-21 -1.842320196108e-20 -1.48247482177744e-18
-6.205065153617e-20 -1.5480374649614e-19 -1.0352121883847309e-17
1.0148273674339e-19 3.1237604335805e-19 1.803407307994218e-17
-9.996183996158e-20 -3.7173898247997e-19 -1.904214253755777e-17
-2.669313825188e-20 -1.0634556976567999e-19 -4.9313457090794796e-18
1.9273194698829998e-20 6.402707843887e-20 2.9485461102210497e-18
-1.2879392837332998e-19 -4.1145135717728e-19 -1.743992753492647e-17
2.9421914227742e-19 7.3546698175154e-19 2.90613461990497e-17
-1.5265855136274998e-19 -3.4542325505370996e-19 -1.286309388084708e-17
7.076992147629e-20 1.4120075645474998e-19 4.99608340091697e-18
-2.8635281960044e-19 -4.855677426480899e-19 -1.64362688665311e-17
2.8578414901673e-19 3.8921906735302997e-19 1.23986763931094e-17
-1.793146037863e-19 -1.4525711641944e-19 -4.47459657300949e-18

SCALARS Gamma float
LOOKUP_TABLE default
-0.0002320751738875545
-0.007450751388918233
-0.016404545051040356
0.023209586559240224
0.016642674922273525
-0.00023501106497820373
0.0003533806973105595
-0.012406991265231643
-0.014151412495961933
0.01041682286080055
0.051146654566073174
0.0873944580342808
0.07085802383298474
0.11913747270393431
0.1454760841550599
0.1652066299808698
0.1700256914859458
0.1674256852747346
0.1614652730795209
0.16152541245184093
0.1575775240065545
0.15811626050617397
0.1598263273717685
0.1679610398724614
0.18242715799296266
0.19678625493995816
0.20974539028997063
0.2366417543620454
0.27133673644464185
0.27477121554788075
0.2986600325176172
0.3114486895315715
0.34481046989962055
0.35093391877645924
0.3516583916816964
0.3485418373488437
0.34160749523636524
0.32804610088019986
0.31331766614308293
0.2983627009405969
0.28360930184031374
0.25502536801160997
0.21882409590230387
0.18293959987285102
0.1478751148677196
0.12629705002988922
0.10178598615160982
0.08014084902950948
0.057249396622559234
0.03139748706207798
-0.0002320751738875545
-0.007450751388918233
-0.016404545051040356
0.023209586559240224
0.016642674922273525
-0.00023501106497820373
0.0003533806973105595
-0.012406991265231643
-0.014151412495961933
0.01041682286080055
0.051146654566073174
0.0873944580342808
0.07085802383298474
0.11913747270393431
0.1454760841550599
0.1652066299808698
0.1700256914859458
0.1674256852747346
0.1614652730795209
0.16152541245184093
0.1575775240065545
0.15811626050617397
0.1598263273717685
0.1679610398724614
0.18242715799296266
0.19678625493995816
0.20974539028997063
0.2366417543620454
0.27133673644464185
0.27477121554788075
0.2986600325176172
0.3114486895315715
0.34481046989962055
0.35093391877645924
0.3516583916816964
0.3485418373488437
0.34160749523636524
0.32804610088019986
0.31331766614308293
0.2983627009405969
0.28360930184031374
0.25502536801160997
0.21882409590230387
0.18293959987285102
0.1478751148677196
0.12629705002988922
0.10178598615160982
0.08014084902950948
0.057249396622559234
0.03139748706207798

VECTORS Ftot float
-0.3424316945171867 0.2692859824691541 -0.023559470712492626
-0.46486648009489495 0.3993293132906545 -0.03493678792652575
-0.519722902393314 0.4533148987130366 -0.03965991464479475
0.16531917028987925 0.10012118808150361 -0.008759468935878768
0.08856662649129131 0.045634901133945735 -0.0039925365103467446
-0.0008505107088713315 0.0001960089826371941 -1.7148563930004835e-5
0.0017091822242829367 0.0009301438940842924 -8.137704618023659e-5
0.03812233284836377 0.00761504903513208 -0.0006662304627681092
0.09173477969498768 0.0004720558240688871 -4.129953315741728e-5
-0.06223890291935096 -0.09428939048740326 0.00824925275841721
-0.5278444977447676 -0.2945215854683103 0.025767299892159687
-1.1502054296442679 -0.5346821586692742 0.04677862747313269
-1.1286100488876742 -0.5648507071890714 0.04941803346364684
-2.225184701848358 -0.9365268258179715 0.0819354803469934
-3.0826174900755374 -1.1844160345210615 0.10362297591892644
-3.891480854358264 -1.4232462460327433 0.12451791193369807
-4.4035036241071825 -1.5044908202217875 0.1316258911482306
-4.702612135247723 -1.569894437414046 0.13734796620614267
-4.861885318957206 -1.663586326295593 0.14554494434760895
-5.203130804890873 -1.7047469374231914 0.14914603120507292
-5.386211847989543 -1.7451902177277743 0.15268435974752534
-5.711100649481671 -1.8039329052282582 0.1578236789688639
-6.075969266953198 -1.8570198616048432 0.16246818583291053
-6.70939314988089 -1.892634315775147 0.1655840468304758
-7.61881614604211 -2.041745558058012 0.17862959013449442
-8.573864555207587 -2.1221254860111993 0.1856619226054291
-9.502425073468427 -2.1830740586137276 0.19099423176623728
-11.118576151933937 -2.354891511651966 0.20602631110298153
-13.192400175284098 -2.5244150293075753 0.22085769709888478
-13.777215042799178 -2.4929001284588246 0.21810050054247548
-15.422246527538626 -2.513782491881603 0.21992747060959703
-16.521780480946923 -2.4750958079109147 0.2165428243327516
-18.7735655999919 -2.344961641171264 0.20515756000563942
-19.550748765952523 -2.19046963104262 0.1916412605140503
-20.006458116835912 -2.096620231989635 0.1834305020181932
-20.21947053924564 -1.9697451275743092 0.1723303686981838
-20.18048577223019 -1.7765007888057327 0.1554236797653695
-19.70384211169172 -1.661366530783504 0.1453507374049554
-19.10968838811171 -1.5791518160485232 0.13815788189062655
-18.457526541000632 -1.4802583865370715 0.12950582791117415
-17.775802284444328 -1.3729385871855024 0.12011656209603466
-16.174875755086635 -1.328113754513759 0.11619489739281048
-14.032258298989731 -1.3945046879930705 0.1220033514331542
-11.845679131601418 -1.3691021221533752 0.11978091489770988
-9.657615374877457 -1.5724090254098215 0.1375679641492114
-8.313744836800456 -1.627234539095775 0.14236457506871794
-6.747566038412006 -1.6138049171428517 0.1411896353923982
-5.345854156328937 -1.6072754548109771 0.1406183814594396
-3.839704281749765 -1.577696438207302 0.13803055282837287
-2.1164118366707796 -1.5413229637399817 0.13484828615943256
-0.3424316945171867 0.2692859824691541 -0.023559470712492626
-0.46486648009489495 0.3993293132906545 -0.03493678792652575
-0.519722902393314 0.4533148987130366 -0.03965991464479475
0.16531917028987925 0.10012118808150361 -0.008759468935878768
0.08856662649129131 0.045634901133945735 -0.0039925365103467446
-0.0008505107088713315 0.0001960089826371941 -1.7148563930004835e-5
0.0017091822242829367 0.0009301438940842924 -8.137704618023659e-5
0.03812233284836377 0.00761504903513208 -0.0006662304627681092
0.09173477969498768 0.0004720558240688871 -4.129953315741728e-5
-0.06223890291935096 -0.09428939048740326 0.00824925275841721
-0.5278444977447676 -0.2945215854683103 0.025767299892159687
-1.1502054296442679 -0.5346821586692742 0.04677862747313269
-1.1286100488876742 -0.5648507071890714 0.04941803346364684
-2.225184701848358 -0.9365268258179715 0.0819354803469934
-3.0826174900755374 -1.1844160345210615 0.10362297591892644
-3.891480854358264 -1.4232462460327433 0.12451791193369807
-4.4035036241071825 -1.5044908202217875 0.1316258911482306
-4.702612135247723 -1.569894437414046 0.13734796620614267
-4.861885318957206 -1.663586326295593 0.14554494434760895
-5.203130804890873 -1.7047469374231914 0.14914603120507292
-5.386211847989543 -1.7451902177277743 0.15268435974752534
-5.711100649481671 -1.8039329052282582 0.1578236789688639
-6.075969266953198 -1.8570198616048432 0.16246818583291053
-6.70939314988089 -1.892634315775147 0.1655840468304758
-7.61881614604211 -2.041745558058012 0.17862959013449442
-8.573864555207587 -2.1221254860111993 0.1856619226054291
-9.502425073468427 -2.1830740586137276 0.19099423176623728
-11.118576151933937 -2.354891511651966 0.20602631110298153
-13.192400175284098 -2.5244150293075753 0.22085769709888478
-13.777215042799178 -2.4929001284588246 0.21810050054247548
-15.422246527538626 -2.513782491881603 0.21992747060959703
-16.521780480946923 -2.4750958079109147 0.2165428243327516
-18.7735655999919 -2.344961641171264 0.20515756000563942
-19.550748765952523 -2.19046963104262 0.1916412605140503
-20.006458116835912 -2.096620231989635 0.1834305020181932
-20.21947053924564 -1.9697451275743092 0.1723303686981838
-20.18048577223019 -1.7765007888057327 0.1554236797653695
-19.70384211169172 -1.661366530783504 0.1453507374049554
-19.10968838811171 -1.5791518160485232 0.13815788189062655
-18.457526541000632 -1.4802583865370715 0.12950582791117415
-17.775802284444328 -1.3729385871855024 0.12011656209603466
-16.174875755086635 -1.328113754513759 0.11619489739281048
-14.032258298989731 -1.3945046879930705 0.1220033514331542
-11.845679131601418 -1.3691021221533752 0.11978091489770988
-9.657615374877457 -1.5724090254098215 0.1375679641492114
-8.313744836800456 -1.627234539095775 0.14236457506871794
-6.747566038412006 -1.6138049171428517 0.1411896353923982
-5.345854156328937 -1.6072754548109771 0.1406183814594396
-3.839704281749765 -1.577696438207302 0.13803055282837287
-2.1164118366707796 -1.5413229637399817 0.13484828615943256

VECTORS D float
-0.3353364152129558 0.2714789657495056 0.03206908286070122
-0.40629261291928465 0.4525159498276138 -0.011512474171716355
-0.3846318983479239 0.5475242161513948 -0.04760861565066469
-0.0005482472777684465 0.0009034541422840136 -0.00015074090290143928
9.284643450353268e-5 -0.00017500081914196395 4.8919170304312594e-5
-0.00012590989603090654 0.0003749849555619387 -0.00016412052610488372
0.00010492804442528087 2.37060964154084e-5 -0.0004782669864437331
0.004077613962970896 -0.008312072273890607 -0.0028913965713185984
0.013424899490521426 -0.03196816548446591 -0.003795346327715108
0.023431666868767277 -0.06091094949829198 -0.0024114905456080744
0.033314936382277074 -0.09259729319570927 -0.00010251509900402074
0.044278845908080615 -0.13060345338940405 0.00263481612929955
0.05697660303696171 -0.1713610467500772 0.002603913850779355
0.07220781418021809 -0.23648223459445805 0.004405832580915909
0.08200654396145299 -0.28929681553851094 0.005771397876804191
0.09748429674186766 -0.36754664213319554 0.007181196118692449
0.09580465750903883 -0.383910460006868 0.0068284016487029095
0.10349714410194778 -0.43912523110367313 0.006651242542538217
0.12337384418299305 -0.5529500871530212 0.006654012343142916
0.12262658233433138 -0.5799925397092811 0.005068572592863643
0.12848649669795117 -0.6415580997366842 0.00348627963413061
0.13213148119673318 -0.6977310928460682 0.0015583555960974034
0.1335957946398787 -0.748321328489193 -0.0005580722066656938
0.12512121609664506 -0.7464405134138804 -0.0025148376595940563
0.12954750289978612 -0.8270520756233558 -0.004550726993578956
0.1243824916816345 -0.8541990342439104 -0.006009804648446706
0.11929672849165356 -0.8860442144110847 -0.006999494234488792
0.11907597272845732 -0.9616111449858525 -0.007762658436019635
0.1149956474059645 -1.0149877403912244 -0.007690269024062109
0.10924270356376233 -1.0590956477779223 -0.006854258705807072
0.09925866555846515 -1.0620229457776726 -0.005145255963184324
0.09054330705387431 -1.0740549071182146 -0.003006706288636419
0.07149588174883954 -1.0081451037723759 -0.0017436321594300262
0.060270934706645934 -0.9620266525024739 0.0009418038054768269
0.0546666740080001 -0.9939092843253826 0.003787059264183794
0.04790374865595838 -0.9988307067722195 0.006664414949464865
0.03896045063311509 -0.9385985183948355 0.008906148036022394
0.034196942124812724 -0.9595975602882583 0.011708804024581859
0.03034488666111801 -1.0004106532080246 0.014778071479417827
0.025822632776339515 -1.0092892910453095 0.01733702877383062
0.021257856477440884 -0.9944606538673231 0.019302177599654576
0.01845284280162565 -1.0438731669039443 0.022411473243495277
0.015315804789245685 -1.2202577804140822 0.026397537370953798
0.012693758674270635 -1.250891172170698 0.029417896972207473
0.011973602605522691 -1.4976169684782246 0.037779563307838215
0.009556482889914175 -1.579557556028076 0.04230374424336987
0.0067807948615951135 -1.5876768945562203 0.044775333845729716
0.004191944464100561 -1.5959824198037975 0.04707620762695391
0.0019328431878035109 -1.5757633570089093 0.049421788972492976
-0.0002983882915201075 -1.544481976683416 0.05014988502576444
-0.3353364152129558 0.2714789657495056 0.03206908286070122
-0.40629261291928465 0.4525159498276138 -0.011512474171716355
-0.3846318983479239 0.5475242161513948 -0.04760861565066469
-0.0005482472777684465 0.0009034541422840136 -0.00015074090290143928
9.284643450353268e-5 -0.00017500081914196395 4.8919170304312594e-5
-0.00012590989603090654 0.0003749849555619387 -0.00016412052610488372
0.00010492804442528087 2.37060964154084e-5 -0.0004782669864437331
0.004077613962970896 -0.008312072273890607 -0.0028913965713185984
0.013424899490521426 -0.03196816548446591 -0.003795346327715108
0.023431666868767277 -0.06091094949829198 -0.0024114905456080744
0.033314936382277074 -0.09259729319570927 -0.00010251509900402074
0.044278845908080615 -0.13060345338940405 0.00263481612929955
0.05697660303696171 -0.1713610467500772 0.002603913850779355
0.07220781418021809 -0.23648223459445805 0.004405832580915909
0.08200654396145299 -0.28929681553851094 0.005771397876804191
0.09748429674186766 -0.36754664213319554 0.007181196118692449
0.09580465750903883 -0.383910460006868 0.0068284016487029095
0.10349714410194778 -0.43912523110367313 0.006651242542538217
0.12337384418299305 -0.5529500871530212 0.006654012343142916
0.12262658233433138 -0.5799925397092811 0.005068572592863643
0.12848649669795117 -0.6415580997366842 0.00348627963413061
0.13213148119673318 -0.6977310928460682 0.0015583555960974034
0.1335957946398787 -0.748321328489193 -0.0005580722066656938
0.12512121609664506 -0.7464405134138804 -0.0025148376595940563