# vtk DataFile Version 4.0
[MyVLM domain - lattices] 
ASCII
DATASET UNSTRUCTURED_GRID
POINTS 152 float
0.0018916144324157278 0.008484243670807249 0.005521560646483362
0.0010688609733395774 0.009850942727205552 0.009554518871467226
0.00045780959861706216 0.011210363514512722 0.013511842923527811
-0.00013255382275044122 0.01242598300837103 0.017405477019606697
-0.0007201482309470062 0.013555121683231988 0.021230406268001444
-0.0011946371146526612 0.014448766126118392 0.02499966765306087
-0.0014108622120167862 0.014804250591825179 0.028739740996328044
-0.0013224843579428829 0.014873896100822038 0.03242855106894257
-0.0010167791708201568 0.01502599947066047 0.036033876074556014
-0.0006138083932142036 0.015014222569536542 0.03957726780709539
-0.00020084691410191335 0.01495231191302471 0.04304877473593234
0.0001698744379422134 0.014983168026652413 0.04643589468507132
0.0004739400232210948 0.015033406056982744 0.04974504799726258
0.0007082255455298663 0.015021532201049858 0.05298336445641323
0.0008836440760600275 0.014959258074538594 0.05614981942891929
0.001017516815515788 0.014905599130046993 0.059239249731705586
0.0011275777072549662 0.014914607843528157 0.062246926385890695
0.0012277625198140337 0.014999791523405146 0.06517166765511286
0.00132638558954348 0.015127453596650523 0.06801642160751165
0.0014271324949937316 0.01524795928165345 0.0707855307237946
0.0015306083418583354 0.015328543270268396 0.0734818615969814
0.0016355657532635378 0.015368461840948295 0.0761054792942762
0.0017398364473795213 0.015387777136831286 0.07865462860558842
0.0018410131526058282 0.015409695438865553 0.08112727924441246
0.001936923789896676 0.015451272331361282 0.08352193904047138
0.0020259353317291845 0.015522034227979107 0.0858377745405658
0.0021071205190511294 0.015624500522007721 0.08807456532634404
0.002180316672546981 0.015755033892876115 0.09023262962212164
0.0022461021518325993 0.015904897378435732 0.09231273181304026
0.0023056987632523672 0.01606156690251053 0.09431596761378643
0.0023607022647827588 0.01621136267080534 0.09624353385128036
0.0024126938092907785 0.016342982396999627 0.098096419347447
0.0024629658139780817 0.016449748989906022 0.0998752082720706
0.0025123806343549317 0.016530462901143496 0.10158000557203582
0.0025613283706516186 0.01658924317014961 0.10321045087808732
0.0026097549007438213 0.016634683921249775 0.10476579230177359
0.0026572361369983943 0.016678585814114594 0.10624499741915143
0.002703078927872171 0.01673363208732863 0.10764695659062784
0.0027464329900004744 0.01680779611963009 0.10897097223595323
0.0027864017842759935 0.016899706150896237 0.11021716436858743
0.0028221433614242725 0.01699818870009403 0.11138651054145295
0.0028529549202113143 0.017084642407898105 0.11248063816261693
0.002878337166053322 0.017136212820756686 0.1135015467376762
0.0028980365508205295 0.01712477874206907 0.11445169655253819
0.0029120651374179955 0.01701565758986642 0.11533412193994687
0.002920699186668212 0.016773517400053603 0.11615191404622076
0.0029244586304951574 0.016371790554575896 0.1169073972367565
0.002924070395798875 0.015801350144784756 0.11760137001259387
0.0029204190990956736 0.015075981786679613 0.1182326262886132
0.0029144889643634465 0.014233589843316049 0.11879784986274897
0.002907300946956263 0.013333130211846166 0.11929188276235235
0.00810836247161673 -0.00814378365304091 0.006976324534119443
0.011553668218636777 -0.015202347536626937 0.011746397753577062
0.013939669461130968 -0.019392724943290425 0.01618926623246675
0.01522937481955013 -0.021748200358032033 0.020395330649423286
0.015665258855664974 -0.022808471127369546 0.024411808404002002
0.015593919129225274 -0.023133308379419366 0.028287673124082202
0.015346845607040699 -0.02331152092710548 0.0320744389057789
0.015101874093430702 -0.023294787933075153 0.03576787822361164
0.014862026584832213 -0.022862519514150942 0.0393486919635139
0.014573437775420557 -0.022369859779533294 0.04284795120895873
0.01419900620025263 -0.021784950861627794 0.046262868757687495
0.013724365381036831 -0.02102569501806995 0.04958626198794224
0.01315362078947486 -0.020209312614799364 0.052828386352877045
0.012505345722450946 -0.019447684639703647 0.055999030170596154
0.01180775930753689 -0.018748940100119835 0.05909890463708727
0.011093286365047583 -0.01806580383873088 0.06212387371201876
0.010393740257911042 -0.017350148208819475 0.06506972677190066
0.009735935550246806 -0.016590731289521432 0.06793548027610112
0.009138077920677518 -0.01582164038737493 0.07072411647751237
0.008609036340576482 -0.015091794465211337 0.07343991523081356
0.00814976642050338 -0.014432174127043984 0.07608558698764509
0.007755574555604428 -0.013840506618501244 0.07866093290776442
0.007418476102154011 -0.013292390874257475 0.08116381817457763
0.007129131854184944 -0.012759045778415738 0.08359172476672011
0.006878194500386411 -0.012216849522023388 0.0859425860436965
0.006657182150182169 -0.011649046237269521 0.08821493605702585
0.006458985770179963 -0.01104558300269579 0.09040789529004521
0.0062780641109025665 -0.010402620931808786 0.09252112788370585
0.0061104223268693076 -0.009721815600760766 0.0945547786821527
0.005953474863152749 -0.009009297654431552 0.09650938404731284
0.005805707912944253 -0.00827328736856401 0.09838566316012483
0.005666205509444805 -0.00752075917786283 0.10018422620455983
0.0055342952714404255 -0.006755342067640292 0.10190539067569279
0.00540933551352742 -0.0059765677247224985 0.10354911560142997
0.005290608834437834 -0.0051800853833028505 0.10511502033908568
0.005177292279709552 -0.0043585197423268605 0.10660245963342753
0.00506847932631156 -0.003502715760295418 0.10801063252211028
0.004963233484525269 -0.002604004184485386 0.10933878054379936
0.004860657316914594 -0.0016597045666986616 0.11058666918966428
0.004759964966983509 -0.0006776438687516723 0.11175498323013387
0.004660549230250331 0.00032352698612840585 0.11284535440955475
0.004562036450887143 0.0013168663177814636 0.1138601398195173
0.004464324907751246 0.0022704911122530414 0.11480212886230155
0.004367604413995984 0.00314674925136762 0.11567461567140565
0.004272356566208671 0.003901118004648129 0.11648149548101548
0.004179336467604936 0.004488312531625811 0.11722673020130173
0.0040895378397703165 0.004871895712330635 0.11791350766719325
0.004004144252868402 0.0050331466194156035 0.11854346574760358
0.003924469769049782 0.004976717049790356 0.11911619746303817
0.003851892631895805 0.004732011901217963 0.11962913021829057
0.0037877857699997984 0.004350282638902818 0.12007778009116629
0.007743320934564478 -0.006462900896373844 0.008905530797630014
0.009750835451407484 -0.010340488899754223 0.013359169219140812
0.01097904857723874 -0.012473303672635452 0.017583888823600576
0.011478899871493482 -0.013461113720575218 0.0216321625559855
0.011482843576133887 -0.013727681338877043 0.025541064813164368
0.011277099360266059 -0.013760183900203874 0.029353218092371527
0.011076601566431817 -0.013767597485986832 0.03308690543168028
0.010944054813253213 -0.013571503346274471 0.0367265172131094
0.010834475689590494 -0.013207114480106962 0.04027513417488366
0.010687834577462932 -0.01281223718011525 0.0437448128053708
0.010467392783463586 -0.012312057212427016 0.0471290077072366
0.010159721621587296 -0.011711056101871595 0.050428110963098974
0.009769883138066048 -0.01111450668818455 0.05365133275301192
0.009316398088944175 -0.010576135492985249 0.056803373538547856
0.008825537238666154 -0.010072421826495823 0.05988217552599288
0.008325771798955828 -0.009553456146134487 0.06288337219616932
0.007843045956442817 -0.008988529891011175 0.06580427689812611
0.007397023565266309 -0.008388733738829176 0.06864585994043312
0.0069993576085374005 -0.007795611459931849 0.07141175593203551
0.006654268640011457 -0.007249425403105511 0.074105487372019
0.006360274627930663 -0.006765129640677371 0.07672836257218577
0.006112194271739797 -0.006330306687562066 0.07927929514336135
0.0059029591836252775 -0.005919604672790349 0.08175606708423677
0.005724989500777071 -0.005508339766386314 0.08415651883951672
0.005571123634166449 -0.005078047589817292 0.08647903498540054
0.005435194951483339 -0.004617169121238641 0.08872260423851538
0.005312323354355712 -0.004120634673578737 0.09088678305871487
0.0051989847672119 -0.0035891722907996004 0.0929716351415922
0.005092936560643893 -0.003028359435578835 0.09497764845190292
0.004992993669540767 -0.0024468531869588504 0.09690558038592248
0.0048986420426550895 -0.0018534743214344426 0.09875620266159768
0.004809645245740569 -0.0012544465437004646 0.10053005978253444
0.004725779850404569 -0.0006519396857548585 0.10222734158443435
0.004646692756112789 -4.378165659786651e-5 0.10384785803395877
0.0045718483267297005 0.0005760139643137814 0.10539108538717507
0.004500538231975694 0.001216195403437191 0.1068562582734423
0.004431931687172631 0.0018865072583876005 0.10824252415093852
0.00436514804027403 0.0025937877441758223 0.10954928475337149
0.004299337703246347 0.0033369321205219157 0.11077663673299189
0.004233760967175223 0.004104443025390058 0.11192558597863828
0.004167856915631001 0.004875501377465216 0.11299795392391075
0.004101297020272476 0.005622865939844787 0.11399612386821872
0.004034020210264442 0.00631408908171097 0.11492293461141699
0.003966248078606562 0.006910504762497843 0.11578176899371856
0.0038984804281908788 0.007369683324842732 0.11657633912913992
0.003831472592411141 0.007653241585812354 0.11731000311105778
0.0037661969130262725 0.007736033461824922 0.1179849609367176
0.0037037914450811374 0.007613365367385282 0.11860162324164154
0.0036454994082869853 0.0073044698103775785 0.11915830739941856
0.003592603139625815 0.006851700459440569 0.119651307944184

CELLS 100 350
4 0 51 52 1
4 1 52 53 2
4 2 53 54 3
4 3 54 55 4
4 4 55 56 5
4 5 56 57 6
4 6 57 58 7
4 7 58 59 8
4 8 59 60 9
4 9 60 61 10
4 10 61 62 11
4 11 62 63 12
4 12 63 64 13
4 13 64 65 14
4 14 65 66 15
4 15 66 67 16
4 16 67 68 17
4 17 68 69 18
4 18 69 70 19
4 19 70 71 20
4 20 71 72 21
4 21 72 73 22
4 22 73 74 23
4 23 74 75 24
4 24 75 76 25
4 25 76 77 26
4 26 77 78 27
4 27 78 79 28
4 28 79 80 29
4 29 80 81 30
4 30 81 82 31
4 31 82 83 32
4 32 83 84 33
4 33 84 85 34
4 34 85 86 35
4 35 86 87 36
4 36 87 88 37
4 37 88 89 38
4 38 89 90 39
4 39 90 91 40
4 40 91 92 41
4 41 92 93 42
4 42 93 94 43
4 43 94 95 44
4 44 95 96 45
4 45 96 97 46
4 46 97 98 47
4 47 98 99 48
4 48 99 100 49
4 49 100 101 50
1 102
1 103
1 104
1 105
1 106
1 107
1 108
1 109
1 110
1 111
1 112
1 113
1 114
1 115
1 116
1 117
1 118
1 119
1 120
1 121
1 122
1 123
1 124
1 125
1 126
1 127
1 128
1 129
1 130
1 131
1 132
1 133
1 134
1 135
1 136
1 137
1 138
1 139
1 140
1 141
1 142
1 143
1 144
1 145
1 146
1 147
1 148
1 149
1 150
1 151

CELL_TYPES 100
9
9
9
9
9
9
9
9
9
9
9
9
9
9
9
9
9
9
9
9
9
9
9
9
9
9
9
9
9
9
9
9
9
9
9
9
9
9
9
9
9
9
9
9
9
9
9
9
9
9
1
1
1
1
1
1
1
1
1
1
1
1
1
1
1
1
1
1
1
1
1
1
1
1
1
1
1
1
1
1
1
1
1
1
1
1
1
1
1
1
1
1
1
1
1
1
1
1
1
1

CELL_DATA 100

VECTORS S float
-4.3507597220033596e-18 -5.4298950555971694e-18 5.3383446196726e-19
1.12421513569216e-18 1.3167333880940699e-18 4.3099660927188495e-18
4.887065443473e-19 5.7010764619517e-19 1.54793949099633e-18
-7.1224576647045e-19 1.14788427821296e-18 5.98929756618856e-18
9.878197541501299e-19 -1.7247063569911999e-18 -4.8011817329141e-18
3.6682811262e-22 2.0674553200499998e-21 2.3001236368199998e-21
1.8537664527099998e-20 -2.103524219602e-20 4.4624364531699995e-21
-9.9665746654e-22 1.07356114685e-20 -1.579936189629e-20
4.5672061747055e-19 -2.3039908069072997e-19 1.1777811434635699e-18
-4.317754503184e-20 7.261612403244999e-20 -4.0683499959734e-19
-1.7554296067919998e-20 3.6226572204799996e-20 -2.8051988010291e-19
5.0618541118445e-19 -1.14292998356182e-18 1.174959694096366e-17
4.4623465177536e-19 -9.8028320500668e-19 1.064234232353569e-17
4.76332267906e-21 -1.1998660177709999e-20 1.390506735188e-19
-2.1479579547178999e-19 5.860407869259099e-19 -7.10523815219014e-18
4.3873287086189996e-20 -1.2510479328497e-19 1.5525784722228099e-18
2.7317557832025e-19 -8.348091718507399e-19 1.036088826042042e-17
8.824717178677899e-19 -2.7417301029057998e-18 3.3639345070798076e-17
3.5621763882293e-19 -1.0877677965969799e-18 1.3093768816193699e-17
-1.010405143744e-19 3.2027973594690997e-19 -3.7488357863550095e-18
-9.0918612446563e-19 2.9025517263723998e-18 -3.3028959521335676e-17
-4.239522194412e-20 1.3835161470959e-19 -1.52920942814013e-18
-4.820891029512099e-19 1.6247208584233298e-18 -1.746718444155828e-17
-7.442690528343e-19 2.7058535955161697e-18 -2.834336639791484e-17
2.6356542618707e-19 -1.0071181727961199e-18 1.034590751674544e-17
7.488385289298999e-19 -3.1028334911044697e-18 3.142337338156144e-17
7.922200564516699e-19 -3.54070620068463e-18 3.5609207151187175e-17
4.4804503006802e-19 -2.17442093753233e-18 2.1870547426657508e-17
2.8790462611685e-19 -1.54297043020072e-18 1.5625186109909928e-17
1.4541310478344e-19 -8.2671690122076e-19 8.49099583647652e-18
-3.5418306338467e-19 2.2312700837507098e-18 -2.335974352124241e-17
-6.5230031083125e-19 4.4566680918963295e-18 -4.7811363154125116e-17
-7.610869506020999e-20 6.4731895593253e-19 -6.72916686688308e-18
-4.0032164031042997e-19 3.83263342557651e-18 -4.13135259209461e-17
-1.2059368780553e-19 1.23310479272591e-18 -1.3812424850942149e-17
3.1936174407852e-19 -3.5095893078763e-18 4.08866902885081e-17
1.1440734478622e-19 -1.38323557968158e-18 1.6761218905100438e-17
-4.281825460832e-20 5.379799690249399e-19 -6.77792672767844e-18
8.356703416357999e-20 -1.0687178191090399e-18 1.3984353955705758e-17
7.07183283626e-20 -9.2893468140674e-19 1.2604906669248259e-17
-1.836907836524e-20 2.5138456519887e-19 -3.53092534471561e-18
9.112794675763e-20 -1.167171175611e-18 1.693949193701958e-17
3.846672063054e-20 -3.9477521978017e-19 5.909216748581959e-18
-5.856370260111e-20 5.2015286095519e-19 -8.01370388843714e-18
9.801734062002e-20 -6.2205313289935e-19 9.84743927511383e-18
8.950568624853999e-20 -4.8132703796426e-19 7.8147803438212e-18
8.703108344486e-20 -3.9730203058327e-19 6.60523627063254e-18
-1.2652484554443e-19 4.7638621480959e-19 -8.09736874413113e-18
7.681856254525999e-20 -1.8485679842024e-19 3.2067492815556098e-18
3.0823226815352997e-19 -3.6487999850407e-19 6.44160149544958e-18
-4.3507597220033596e-18 -5.4298950555971694e-18 5.3383446196726e-19
1.12421513569216e-18 1.3167333880940699e-18 4.3099660927188495e-18
4.887065443473e-19 5.7010764619517e-19 1.54793949099633e-18
-7.1224576647045e-19 1.14788427821296e-18 5.98929756618856e-18
9.878197541501299e-19 -1.7247063569911999e-18 -4.8011817329141e-18
3.6682811262e-22 2.0674553200499998e-21 2.3001236368199998e-21
1.8537664527099998e-20 -2.103524219602e-20 4.4624364531699995e-21
-9.9665746654e-22 1.07356114685e-20 -1.579936189629e-20
4.5672061747055e-19 -2.3039908069072997e-19 1.1777811434635699e-18
-4.317754503184e-20 7.261612403244999e-20 -4.0683499959734e-19
-1.7554296067919998e-20 3.6226572204799996e-20 -2.8051988010291e-19
5.0618541118445e-19 -1.14292998356182e-18 1.174959694096366e-17
4.4623465177536e-19 -9.8028320500668e-19 1.064234232353569e-17
4.76332267906e-21 -1.1998660177709999e-20 1.390506735188e-19
-2.1479579547178999e-19 5.860407869259099e-19 -7.10523815219014e-18
4.3873287086189996e-20 -1.2510479328497e-19 1.5525784722228099e-18
2.7317557832025e-19 -8.348091718507399e-19 1.036088826042042e-17
8.824717178677899e-19 -2.7417301029057998e-18 3.3639345070798076e-17
3.5621763882293e-19 -1.0877677965969799e-18 1.3093768816193699e-17
-1.010405143744e-19 3.2027973594690997e-19 -3.7488357863550095e-18
-9.0918612446563e-19 2.9025517263723998e-18 -3.3028959521335676e-17
-4.239522194412e-20 1.3835161470959e-19 -1.52920942814013e-18
-4.820891029512099e-19 1.6247208584233298e-18 -1.746718444155828e-17
-7.442690528343e-19 2.7058535955161697e-18 -2.834336639791484e-17
2.6356542618707e-19 -1.0071181727961199e-18 1.034590751674544e-17
7.488385289298999e-19 -3.1028334911044697e-18 3.142337338156144e-17
7.922200564516699e-19 -3.54070620068463e-18 3.5609207151187175e-17
4.4804503006802e-19 -2.17442093753233e-18 2.1870547426657508e-17
2.8790462611685e-19 -1.54297043020072e-18 1.5625186109909928e-17
1.4541310478344e-19 -8.2671690122076e-19 8.49099583647652e-18
-3.5418306338467e-19 2.2312700837507098e-18 -2.335974352124241e-17
-6.5230031083125e-19 4.4566680918963295e-18 -4.7811363154125116e-17
-7.610869506020999e-20 6.4731895593253e-19 -6.72916686688308e-18
-4.0032164031042997e-19 3.83263342557651e-18 -4.13135259209461e-17
-1.2059368780553e-19 1.23310479272591e-18 -1.3812424850942149e-17
3.1936174407852e-19 -3.5095893078763e-18 4.08866902885081e-17
1.1440734478622e-19 -1.38323557968158e-18 1.6761218905100438e-17
-4.281825460832e-20 5.379799690249399e-19 -6.77792672767844e-18
8.356703416357999e-20 -1.0687178191090399e-18 1.3984353955705758e-17
7.07183283626e-20 -9.2893468140674e-19 1.2604906669248259e-17
-1.836907836524e-20 2.5138456519887e-19 -3.53092534471561e-18
9.112794675763e-20 -1.167171175611e-18 1.693949193701958e-17
3.846672063054e-20 -3.9477521978017e-19 5.909216748581959e-18
-5.856370260111e-20 5.2015286095519e-19 -8.01370388843714e-18
9.801734062002e-20 -6.2205313289935e-19 9.84743927511383e-18
8.950568624853999e-20 -4.8132703796426e-19 7.8147803438212e-18
8.703108344486e-20 -3.9730203058327e-19 6.60523627063254e-18
-1.2652484554443e-19 4.7638621480959e-19 -8.09736874413113e-18
7.681856254525999e-20 -1.8485679842024e-19 3.2067492815556098e-18
3.0823226815352997e-19 -3.6487999850407e-19 6.44160149544958e-18

SCALARS Gamma float
LOOKUP_TABLE default
-0.000229406352831597
-0.007276010830058808
-0.016065361279128977
0.023864977540109553
0.025850277326602035
-0.00019754424032382206
0.004361266424706014
-0.010747054887274057
0.00596374539686659
0.03770023142042682
0.07364280231589425
0.1029830501899528
0.0949879571901531
0.14454794438947233
0.1710968719303118
0.18760517412939404
0.18990531198990546
0.18433995755594262
0.1774433664725376
0.17401323176050143
0.16783379695064174
0.16684357604778202
0.16834260723839153
0.17493003714309602
0.18978495877494636
0.20512692271038635
0.2189968907705533
0.24742588448234482
0.2816403799088487
0.2861347331327152
0.30872954125553975
0.3208080909959334
0.3706191667073145
0.3745799260713092
0.37372091365061566
0.3688073242113786
0.3603237038537027
0.3443069345517831
0.32848100940903824
0.31236915765649087
0.29698013288459146
0.26720388979560666
0.22457023514979968
0.18945683108217812
0.15503230315504407
0.13500270400085007
0.11308664766600687
0.09230027459110275
0.05768244451958025
0.027613897767802407
-0.000229406352831597
-0.007276010830058808
-0.016065361279128977
0.023864977540109553
0.025850277326602035
-0.00019754424032382206
0.004361266424706014
-0.010747054887274057
0.00596374539686659
0.03770023142042682
0.07364280231589425
0.1029830501899528
0.0949879571901531
0.14454794438947233
0.1710968719303118
0.18760517412939404
0.18990531198990546
0.18433995755594262
0.1774433664725376
0.17401323176050143
0.16783379695064174
0.16684357604778202
0.16834260723839153
0.17493003714309602
0.18978495877494636
0.20512692271038635
0.2189968907705533
0.24742588448234482
0.2816403799088487
0.2861347331327152
0.30872954125553975
0.3208080909959334
0.3706191667073145
0.3745799260713092
0.37372091365061566
0.3688073242113786
0.3603237038537027
0.3443069345517831
0.32848100940903824
0.31236915765649087
0.29698013288459146
0.26720388979560666
0.22457023514979968
0.18945683108217812
0.15503230315504407
0.13500270400085007
0.11308664766600687
0.09230027459110275
0.05768244451958025
0.027613897767802407

VECTORS Ftot float
-0.3281349787521521 0.2629215545268552 -9.306834394579712e-16
-0.45570937897225716 0.38908057314400873 -1.3772581205507755e-15
-0.4782042512017621 0.4099252985935179 -1.4510437818702424e-15
0.15926028262991612 0.09881872608852203 -3.4979616655783545e-16
0.12592121386732763 0.07212095092042665 -2.5529201963069293e-16
-0.0006124270365326051 0.00010866278547927984 -3.8464193288729e-19
-0.0011423849513676723 -0.0010067461449653984 3.56365596021055e-18
0.03673386804352656 0.003410246725867 -1.2071509914589379e-17
-0.021973438784179476 -0.043557997277483586 1.5418555848363772e-16
-0.29192057743340133 -0.173575966023977 6.144200590824307e-16
-0.7713542159530953 -0.3737748137894234 1.3230791591290847e-15
-1.3460850847782813 -0.5961595565148418 2.1102713602976968e-15
-1.5346495107893905 -0.6985877005203115 2.4728440581955787e-15
-2.712886690735431 -1.0769831388099 3.812279193577718e-15
-3.629285115259347 -1.3302063622827243 4.7086327123922085e-15
-4.41475081469985 -1.5482190955394202 5.480348978858488e-15
-4.908594657112829 -1.6062451508812277 5.685748223743053e-15
-5.162444172323164 -1.661619052990678 5.881759439956093e-15
-5.329628239298753 -1.7453243175117767 6.178057336206658e-15
-5.588248643104774 -1.7629573587663376 6.2404743545162904e-15
-5.718390149017019 -1.791210447871951 6.3404839645744814e-15
-6.006832854195188 -1.840679724406303 6.515594128194733e-15
-6.380370092914086 -1.8931909925588752 6.701472261094423e-15
-6.966919898569747 -1.9163131673765301 6.783319583295788e-15
-7.904817970783808 -2.0687112730936237 7.322774758246752e-15
-8.916810612072167 -2.15198506804616 7.617545348823146e-15
-9.902630127229786 -2.2156772558244984 7.84300143398444e-15
-11.607036111713686 -2.391659661617759 8.465939751090089e-15
-13.674756950782651 -2.55158861770385 9.032052450320776e-15
-14.33212752999474 -2.5209103130845336 8.923458120307683e-15
-15.928011092564116 -2.5283500206779603 8.949793019567168e-15
-17.00503981814598 -2.4889429794521964 8.810300916179692e-15
-20.306445089707736 -2.3875355772070224 8.451341415586914e-15
-20.983272909879325 -2.1917197126934655 7.758197094978166e-15
-21.363611013209717 -2.0892925338733273 7.395627813620269e-15
-21.48429187890234 -1.9550039400164845 6.9202762562495884e-15
-21.362710761677935 -1.766908725874571 6.254461309437004e-15
-20.745622060383713 -1.6511605980413453 5.844738850901777e-15
-20.090195448926515 -1.5709273480937138 5.560731108917556e-15
-19.371510684142052 -1.4747224760369084 5.220187400435504e-15
-18.65461621545344 -1.3631230973308226 4.825150584977516e-15
-16.980910410917883 -1.3257999616140814 4.693035040541749e-15
-14.422504869209439 -1.4053224158937898 4.974526724996319e-15
-12.285781497713621 -1.3832488636762852 4.8963912920311074e-15
-10.14034360328581 -1.5978209262198815 5.655928354479396e-15
-8.900277445733963 -1.6550606505549599 5.858544163645987e-15
-7.508197595420591 -1.6447098709467798 5.821904721192711e-15
-6.166510902829688 -1.6377821508549455 5.797382143063759e-15
-3.8754702221191875 -1.6104793234238817 5.7007362465863964e-15
-1.866252784972904 -1.5765164745077065 5.580515365114813e-15
-0.3281349787521521 0.2629215545268552 -9.306834394579712e-16
-0.45570937897225716 0.38908057314400873 -1.3772581205507755e-15
-0.4782042512017621 0.4099252985935179 -1.4510437818702424e-15
0.15926028262991612 0.09881872608852203 -3.4979616655783545e-16
0.12592121386732763 0.07212095092042665 -2.5529201963069293e-16
-0.0006124270365326051 0.00010866278547927984 -3.8464193288729e-19
-0.0011423849513676723 -0.0010067461449653984 3.56365596021055e-18
0.03673386804352656 0.003410246725867 -1.2071509914589379e-17
-0.021973438784179476 -0.043557997277483586 1.5418555848363772e-16
-0.29192057743340133 -0.173575966023977 6.144200590824307e-16
-0.7713542159530953 -0.3737748137894234 1.3230791591290847e-15
-1.3460850847782813 -0.5961595565148418 2.1102713602976968e-15
-1.5346495107893905 -0.6985877005203115 2.4728440581955787e-15
-2.712886690735431 -1.0769831388099 3.812279193577718e-15
-3.629285115259347 -1.3302063622827243 4.7086327123922085e-15
-4.41475081469985 -1.5482190955394202 5.480348978858488e-15
-4.908594657112829 -1.6062451508812277 5.685748223743053e-15
-5.162444172323164 -1.661619052990678 5.881759439956093e-15
-5.329628239298753 -1.7453243175117767 6.178057336206658e-15
-5.588248643104774 -1.7629573587663376 6.2404743545162904e-15
-5.718390149017019 -1.791210447871951 6.3404839645744814e-15
-6.006832854195188 -1.840679724406303 6.515594128194733e-15
-6.380370092914086 -1.8931909925588752 6.701472261094423e-15
-6.966919898569747 -1.9163131673765301 6.783319583295788e-15
-7.904817970783808 -2.0687112730936237 7.322774758246752e-15
-8.916810612072167 -2.15198506804616 7.617545348823146e-15
-9.902630127229786 -2.2156772558244984 7.84300143398444e-15
-11.607036111713686 -2.391659661617759 8.465939751090089e-15
-13.674756950782651 -2.55158861770385 9.032052450320776e-15
-14.33212752999474 -2.5209103130845336 8.923458120307683e-15
-15.928011092564116 -2.5283500206779603 8.949793019567168e-15
-17.00503981814598 -2.4889429794521964 8.810300916179692e-15
-20.306445089707736 -2.3875355772070224 8.451341415586914e-15
-20.983272909879325 -2.1917197126934655 7.758197094978166e-15
-21.363611013209717 -2.0892925338733273 7.395627813620269e-15
-21.48429187890234 -1.9550039400164845 6.9202762562495884e-15
-21.362710761677935 -1.766908725874571 6.254461309437004e-15
-20.745622060383713 -1.6511605980413453 5.844738850901777e-15
-20.090195448926515 -1.5709273480937138 5.560731108917556e-15
-19.371510684142052 -1.4747224760369084 5.220187400435504e-15
-18.65461621545344 -1.3631230973308226 4.825150584977516e-15
-16.980910410917883 -1.3257999616140814 4.693035040541749e-15
-14.422504869209439 -1.4053224158937898 4.974526724996319e-15
-12.285781497713621 -1.3832488636762852 4.8963912920311074e-15
-10.14034360328581 -1.5978209262198815 5.655928354479396e-15
-8.900277445733963 -1.6550606505549599 5.858544163645987e-15
-7.508197595420591 -1.6447098709467798 5.821904721192711e-15
-6.166510902829688 -1.6377821508549455 5.797382143063759e-15
-3.8754702221191875 -1.6104793234238817 5.7007362465863964e-15
-1.866252784972904 -1.5765164745077065 5.580515365114813e-15

VECTORS D float
-0.32504785915838047 0.2633722916366457 0.029744746584734368
-0.3996614202216908 0.438196780349709 -0.029625038974677463
-0.3477942269735832 0.49180376535982884 -0.07132822238416295
-0.00045175696316096753 0.0007360008167569185 -0.00019478173156364077
-0.00015968287231192776 0.00028049393642191477 -0.00013361451546724752
-7.205210116476716e-5 0.00018656910295266008 -0.0001562057545184374
4.5006931442870536e-8 -5.125778873541416e-8 -4.2858725654378546e-7
0.00316194840563318 -0.007353563304911935 -0.005196183148206319
0.0107680744221861 -0.02734885984245266 -0.00952566937157585
0.020474674271766052 -0.05530981861485148 -0.012045253785883541
0.03148198733081952 -0.08957999446985153 -0.013538506656948215
0.04336870970755387 -0.12960666681697572 -0.01447572666407876
0.05789644415948651 -0.17768318440399497 -0.018794287479321655
0.07232090192920387 -0.2418446379823284 -0.02334616105862664
0.08249745228681368 -0.2971077091967552 -0.026999424576448543
0.09675563677941308 -0.3720376555772089 -0.03271247330392747
0.09251791383154553 -0.3774062739842633 -0.03284813474459597
0.10133179643373456 -0.4366090337988685 -0.03824350839568701
0.1191121377611329 -0.5406848428846001 -0.04815797602035953
0.1180441755822548 -0.5640338746722854 -0.05136951193376334
0.1241793107165488 -0.6250915166425453 -0.05835068966601268
0.1279919921365687 -0.6803848721003558 -0.06510461730140135
0.12970351400609997 -0.7308580747554331 -0.07156098989515078
0.12130218518973203 -0.7280178720634332 -0.07268689294974953
0.126163403925922 -0.8109128507373318 -0.08215203726504935
0.1210153574821974 -0.8378449922300834 -0.08561507486332398
0.11610521348718338 -0.8709301012878755 -0.0891816679684246
0.11592594819847864 -0.9474611225926965 -0.09657368451762147
0.11185824116664315 -1.0013587688629528 -0.10094417208116051
0.10608795762745477 -1.0452914694902133 -0.103590523510748
0.09615862536737611 -1.047443447267864 -0.10150740664839569
0.08814452666316215 -1.0657854650311829 -0.10054824752548494
0.0681506160511453 -1.0308135295233725 -0.09993094322817267
0.0558634450399787 -0.9635620737066427 -0.08993043983626688
0.05049357916259246 -1.000428222306183 -0.08975412036657497
0.04398550282754495 -1.0093199515672013 -0.08698052525281617
0.03588383496839449 -0.9626835800720168 -0.079691313726824
0.031211560606816093 -0.9896068731123493 -0.07874459564649804
0.027271142570129223 -1.0345620828084143 -0.07922667753433836
0.022761376939558504 -1.0476521315386402 -0.0773357606798109
0.01813002817813818 -1.0288502942792972 -0.0733434129889147
0.015175484755732865 -1.0823504575636744 -0.0746581521716556
0.013527001265967746 -1.242615308791444 -0.08310307303025506
0.010433422042041902 -1.277427454381818 -0.08299140748694403
0.008900440908598452 -1.5327587775026328 -0.09691146808942033
0.006042542447848734 -1.6156127301262153 -0.09957783809147591
0.003097841836356902 -1.6245039171076487 -0.09775400712908561
0.0004223167326467529 -1.6305404366107124 -0.09593491970010108
-0.0019855048576759714 -1.6099121077341063 -0.09275769579351599
-0.004063658471387292 -1.5762815879287781 -0.08909291783777894
-0.32504785915838047 0.2633722916366457 0.029744746584734368
-0.3996614202216908 0.438196780349709 -0.029625038974677463
-0.3477942269735832 0.49180376535982884 -0.07132822238416295
-0.00045175696316096753 0.0007360008167569185 -0.00019478173156364077
-0.00015968287231192776 0.00028049393642191477 -0.00013361451546724752
-7.205210116476716e-5 0.00018656910295266008 -0.0001562057545184374
4.5006931442870536e-8 -5.125778873541416e-8 -4.2858725654378546e-7
0.00316194840563318 -0.007353563304911935 -0.005196183148206319
0.0107680744221861 -0.02734885984245266 -0.00952566937157585
0.020474674271766052 -0.05530981861485148 -0.012045253785883541
0.03148198733081952 -0.08957999446985153 -0.013538506656948215
0.04336870970755387 -0.12960666681697572 -0.01447572666407876
0.05789644415948651 -0.17768318440399497 -0.018794287479321655
0.07232090192920387 -0.2418446379823284 -0.02334616105862664
0.08249745228681368 -0.2971077091967552 -0.026999424576448543
0.09675563677941308 -0.3720376555772089 -0.03271247330392747
0.09251791383154553 -0.3774062739842633 -0.03284813474459597
0.10133179643373456 -0.4366090337988685 -0.03824350839568701
0.1191121377611329 -0.5406848428846001 -0.04815797602035953
0.1180441755822548 -0.5640338746722854 -0.05136951193376334