# vtk DataFile Version 4.0
 
ASCII
DATASET UNSTRUCTURED_GRID
POINTS 51 float
0.0032294827979058027 -0.006240000016987324 0.004364748019725084
0.0029985597357153893 -0.01037672720849514 0.004324339795857668
0.0027879877015948296 -0.014437473379075527 0.004639660008251667
0.0024406220763921738 -0.018422240391373634 0.005063320975750685
0.001979583641514182 -0.022331025451421738 0.005577745381742716
0.0015499991131946445 -0.026163829490542415 0.005980147514492273
0.0013237936655059457 -0.029920652508735657 0.005928636994212866
0.00136558769736439 -0.03360149636864662 0.005648696795105934
0.0016000348841771481 -0.03720635920763016 0.00548976007848978
0.0019152839668095112 -0.040735241025686264 0.005190039519220591
0.002229772275313735 -0.04418814182281494 0.004853494465351105
0.002495136111974716 -0.04756506159901619 0.004616714548319578
0.002689530374482274 -0.05086600035429001 0.004401834681630135
0.00281157111749053 -0.054090958088636405 0.004124902654439211
0.0028735389932990074 -0.05723993852734566 0.003797087585553527
0.00289417477324605 -0.06031293421983719 0.003478195983916521
0.0028929314576089382 -0.06330995261669159 0.003223814535886049
0.0028857397846877575 -0.06623098999261856 0.003049219027161598
0.002882807282730937 -0.0690760463476181 0.002922364743426442
0.002889164024963975 -0.07184511423110962 0.0027951295487582684
0.002906039822846651 -0.0745382085442543 0.002636243123561144
0.0029321631882339716 -0.07715532183647156 0.002446539234369993
0.002964876824989915 -0.07969645410776138 0.002247737254947424
0.003001011675223708 -0.08216160535812378 0.0020647249184548855
0.003037509974092245 -0.08455078303813934 0.0019162106327712536
0.0030718371272087097 -0.08686397224664688 0.0018133050762116911
0.003102224553003907 -0.08910118043422699 0.0017599998973309994
0.0031277663074433804 -0.09126240760087967 0.0017539722612127662
0.0031484069768339396 -0.09334765374660492 0.0017875969642773268
0.0031648471485823393 -0.09535692632198334 0.0018492217641323807
0.0031782679725438356 -0.09729021042585373 0.0019257718231528997
0.0031899327877908945 -0.09914752095937729 0.0020062685944139957
0.0032009012065827847 -0.10092884302139282 0.002084064995869994
0.003211877541616559 -0.10263418406248094 0.002157690702006221
0.003223159583285451 -0.10426355153322218 0.002230687066912651
0.003234656061977148 -0.10581693798303606 0.0023107659071683884
0.0032459525391459465 -0.10729433596134187 0.002408547094091773
0.0032564047724008556 -0.10869576036930083 0.002535243285819888
0.0032652423251420264 -0.1100212037563324 0.0026970708277076483
0.003271671943366527 -0.11127065867185593 0.002890626434236765
0.0032749734818935394 -0.11244414001703264 0.003102462040260434
0.0032745779026299715 -0.11354164034128189 0.003311506705358624
0.0032701271120458846 -0.11456315964460372 0.0034922941122204065
0.0032615121454000473 -0.11550869792699814 0.0036139884032309055
0.0032488894648849964 -0.11637825518846512 0.0036391294561326504
0.003232676535844803 -0.11717183142900467 0.003529611276462674
0.0032135276123881336 -0.11788942664861679 0.003256178693845868
0.003192296950146556 -0.11853104084730147 0.0028071787673979998
0.0031699857208877806 -0.11909667402505875 0.0021940963342785835
0.003147683572024107 -0.11958632618188858 0.001452805008739233
0.0031265048310160637 -0.11999999731779097 0.0006405232707038522

CELLS 50 150
2 0 1
2 1 2
2 2 3
2 3 4
2 4 5
2 5 6
2 6 7
2 7 8
2 8 9
2 9 10
2 10 11
2 11 12
2 12 13
2 13 14
2 14 15
2 15 16
2 16 17
2 17 18
2 18 19
2 19 20
2 20 21
2 21 22
2 22 23
2 23 24
2 24 25
2 25 26
2 26 27
2 27 28
2 28 29
2 29 30
2 30 31
2 31 32
2 32 33
2 33 34
2 34 35
2 35 36
2 36 37
2 37 38
2 38 39
2 39 40
2 40 41
2 41 42
2 42 43
2 43 44
2 44 45
2 45 46
2 46 47
2 47 48
2 48 49
2 49 50

CELL_TYPES 50
4
4
4
4
4
4
4
4
4
4
4
4
4
4
4
4
4
4
4
4
4
4
4
4
4
4
4
4
4
4
4
4
4
4
4
4
4
4
4
4
4
4
4
4
4
4
4
4
4
4

POINT_DATA 51

SCALARS zone float
LOOKUP_TABLE default
1.0
1.0
1.0
1.0
1.0
1.0
1.0
1.0
1.0
1.0
1.0
1.0
1.0
1.0
1.0
1.0
1.0
1.0
1.0
1.0
1.0
1.0
1.0
1.0
1.0
1.0
1.0
1.0
1.0
1.0
1.0
1.0
1.0
1.0
1.0
1.0
1.0
1.0
1.0
1.0
1.0
1.0
1.0
1.0
1.0
1.0
1.0
1.0
1.0
1.0
1.0

VECTORS normals float
-0.00011546154564712197 -0.002068363595753908 -2.020418287429493e-5
-0.00022074757725931704 -0.004098737146705389 0.00013745584874413908
-0.0002789688587654382 -0.00402275612577796 0.0003694906772579998
-0.00040420211735181516 -0.003946775570511818 0.00046904280316084623
-0.00044531151070259506 -0.0038707947824150324 0.0004584132111631334
-0.0003278949297964573 -0.003794813994318247 0.00017544583533890545
-9.220571519108489e-5 -0.003718833439052105 -0.00016572547610849142
0.00013812060933560133 -0.0036428526509553194 -0.00021943853062111884
0.0002748481638263911 -0.003566872095689177 -0.00022932857973501086
0.0003148686664644629 -0.0034908913075923915 -0.0003181328938808292
0.00028992604347877204 -0.003414910519495607 -0.0002866623690351844
0.00022987906413618475 -0.003338929964229465 -0.0002258297463413328
0.00015821750275790691 -0.003262949176132679 -0.00024590615066699684
9.200429485645145e-5 -0.0031869683880358934 -0.00030237360624596477
4.130187880946323e-5 -0.0031109878327697515 -0.00032335324794985354
9.696207598608453e-6 -0.003035007044672966 -0.0002866365248337388
-4.217552486807108e-6 -0.0029590262565761805 -0.00021448842016980055
-5.062076070316834e-6 -0.0028830457013100386 -0.00015072498354129493
1.7121039945777738e-6 -0.002807064913213253 -0.00012704473920166492
1.1616368283284828e-5 -0.0027310841251164675 -0.00014306072262115777
2.149965257558506e-5 -0.0026551035698503256 -0.00017429512809030712
2.9418395570246506e-5 -0.00257912278175354 -0.00019425296341069043
3.442417073529214e-5 -0.002503142226487398 -0.00019090724526904523
3.63165709131863e-5 -0.0024271614383906126 -0.0001657633256400004
3.5412773286225274e-5 -0.002351180650293827 -0.0001257098774658516
3.2357384043280035e-5 -0.002275200095027685 -7.810533861629665e-5
2.7964591936324723e-5 -0.0021992193069308996 -2.9666427508345805e-5
2.309120463905856e-5 -0.002123238518834114 1.379852710670093e-5
1.854042238846887e-5 -0.002047257963567972 4.762474782182835e-5
1.493051149736857e-5 -0.0019712771754711866 6.90874076099135e-5
1.2542826880235225e-5 -0.0018952965037897231 7.852337876101956e-5
1.1316546078887768e-5 -0.0018193157156929374 7.91466300142929e-5
1.0972400559694506e-5 -0.0017433350440114737 7.571109017590061e-5
1.1129222002637107e-5 -0.00166735437233001 7.331099186558276e-5
1.1389166502340231e-5 -0.0015913737006485462 7.653764623682946e-5
1.1396474292268977e-5 -0.0015153929125517607 8.893001358956099e-5
1.0874458894249983e-5 -0.001439412240870297 0.0001122386602219194
9.644884812587406e-6 -0.0013634315691888332 0.00014426192501559854
7.633578206878155e-6 -0.0012874507810920477 0.00017769155965652317
4.865619757765671e-6 -0.001211470109410584 0.00020269551896490157
1.4529367717841524e-6 -0.0011354894377291203 0.00021044010645709935
-2.4232347186625702e-6 -0.0010595087660476565 0.00019491606508381665
-6.532860879815417e-6 -0.000983527977950871 0.0001512409362476319
-1.0618759006320033e-5 -0.0009075473062694074 7.341764285229146e-5
-1.4417873899219556e-5 -0.0008315665763802826 -4.218858157400973e-5
-1.7680962628219277e-5 -0.0007555859046988189 -0.00019147533748764545
-2.018977284024004e-5 -0.0006796051748096943 -0.0003612163127399981
-2.1771005776827224e-5 -0.0006036245031282306 -0.0005310411215759814
-2.2306650862446986e-5 -0.0005276437732391059 -0.0006771868793293834
-2.1740446754847653e-5 -0.0004516630724538117 -0.0007767865899950266
-1.058942416420905e-5 -0.00020683636830653995 -0.00040614086901769037

CELL_DATA 50

VECTORS liftinglineloading               float
0.1260814070701599 0.009340846911072731 -0.10676636546850206
0.18423452973365784 0.015573167242109774 -0.17800211906433105
-0.06916715949773788 0.004661428742110729 -0.05328037589788437
0.13668183982372284 0.00630260119214654 -0.07203906029462814
0.13579319417476654 0.010824955068528652 -0.12372980266809464
-0.513828456401825 0.0346449576318264 -0.3959936499595642
-1.6308590173721313 0.07567346841096878 -0.864951729774475
-3.2196881771087646 0.12440929561853407 -1.4220048189163208
-5.098054885864258 0.17367802560329437 -1.9851490259170534
-7.208702087402344 0.2246934026479721 -2.5682573318481445
-8.930854797363281 0.26495400071144104 -3.028437852859497
-10.698891639709473 0.3014601171016693 -3.445704698562622
-11.934057235717773 0.32119274139404297 -3.671249628067016
-12.834916114807129 0.33449557423591614 -3.8233020305633545
-13.451781272888184 0.33747872710227966 -3.857399463653564
-13.873575210571289 0.3366060256958008 -3.8474245071411133
-13.867620468139648 0.3219365179538727 -3.679751396179199
-13.722594261169434 0.3129313588142395 -3.5768220424652104
-14.313526153564451 0.3119038939476013 -3.565077781677246
-14.178794860839844 0.3001178205013275 -3.4303624629974365
-14.075611114501953 0.29224082827568054 -3.3403279781341553
-14.098589897155762 0.2798953056335449 -3.1992180347442627
-14.365283012390138 0.28689971566200256 -3.279278755187988
-14.068777084350586 0.2751215696334839 -3.1446540355682373
-14.898183822631836 0.2783142328262329 -3.1811463832855225
-16.1892032623291 0.2727609872817993 -3.1176724433898926
-17.657407760620117 0.27355754375457764 -3.126776933670044
-19.342792510986328 0.2913973033428192 -3.330686569213867
-20.818729400634766 0.2933257818222046 -3.352729082107544
-21.988563537597656 0.28923624753952026 -3.3059854507446285
-23.085487365722656 0.27587613463401794 -3.1532785892486572
-23.952428817749023 0.2586798667907715 -2.9567244052886963
-24.577163696289062 0.25309523940086365 -2.8928916454315186
-24.955961227416992 0.23186951875686646 -2.650280714035034
-25.022703170776367 0.22119329869747162 -2.5282509326934814
-24.832000732421875 0.2068079560995102 -2.363825798034668
-24.393516540527344 0.18614643812179565 -2.1276633739471436
-23.49577522277832 0.1738426238298416 -1.987030267715454
-22.512983322143555 0.16494666039943695 -1.8853490352630615
-21.514835357666016 0.15110963582992554 -1.727190971374512
-20.66016960144043 0.14237189292907715 -1.627318263053894
-18.59857749938965 0.13737773895263672 -1.570234775543213
-15.525281906127931 0.1425437033176422 -1.6292819976806643
-13.003366470336916 0.13901430368423462 -1.5889407396316528
-10.4830322265625 0.1569107174873352 -1.7934978008270264
-8.861820220947266 0.16159334778785706 -1.8470203876495361
-7.014453887939453 0.15911443531513214 -1.8186862468719485
-5.373401165008545 0.15773752331733704 -1.8029481172561646
-3.5446147918701167 0.1539170742034912 -1.759280204772949
-1.9092673063278198 0.1492416262626648 -1.705839514732361