# vtk DataFile Version 4.0
 
ASCII
DATASET UNSTRUCTURED_GRID
POINTS 51 float
0.0032294827979058027 -0.0006674036267213523 0.007585723418742418
0.0029985597357153893 -0.0033573952969163656 0.010728666558861732
0.0027879877015948296 -0.005726043600589037 0.014042062684893608
0.0024406220763921738 -0.00796285830438137 0.017366893589496613
0.001979583641514182 -0.010081305168569088 0.02069186232984066
0.0015499991131946445 -0.012236726470291615 0.02388662099838257
0.0013237936655059457 -0.014691025950014593 0.026731405407190323
0.00136558769736439 -0.01727147214114666 0.02937115170061588
0.0016000348841771481 -0.01971038617193699 0.03203047439455986
0.0019152839668095112 -0.022208306938409805 0.03454109653830528
0.002229772275313735 -0.02468559704720974 0.03696984425187111
0.002495136111974716 -0.027037624269723892 0.03940451890230179
0.002689530374482274 -0.029324034228920937 0.04179506376385689
0.00281157111749053 -0.03160914033651352 0.04408751428127289
0.0028735389932990074 -0.033884383738040924 0.04628905653953552
0.00289417477324605 -0.036103956401348114 0.04843813180923462
0.0028929314576089382 -0.038225267082452774 0.05057046562433243
0.0028857397846877575 -0.04023662209510803 0.05269588157534599
0.002882807282730937 -0.042162563651800156 0.05479377880692482
0.002889164024963975 -0.04403995722532272 0.05683322623372077
0.002906039822846651 -0.045892760157585144 0.05879412591457366
0.0029321631882339716 -0.047720327973365784 0.06067701429128647
0.002964876824989915 -0.04950602725148201 0.06249584630131721
0.003001011675223708 -0.051230791956186295 0.0642666220664978
0.003037509974092245 -0.052880290895700455 0.06600137054920197
0.0030718371272087097 -0.054446011781692505 0.06770723313093185
0.003102224553003907 -0.055924896150827415 0.06938677281141281
0.0031277663074433804 -0.05731872469186783 0.07103849202394485
0.0031484069768339396 -0.058633338660001755 0.0726574957370758
0.0031648471485823393 -0.0598776638507843 0.07423629611730576
0.0031782679725438356 -0.06106171384453774 0.07576648890972137
0.0031899327877908945 -0.06219390407204628 0.07724101096391678
0.0032009012065827847 -0.06327932327985764 0.07865559309720993
0.003211877541616559 -0.06431909650564194 0.08000928908586502
0.003223159583285451 -0.0653105154633522 0.08130437135696411
0.003234656061977148 -0.06624766439199448 0.08254580944776535
0.0032459525391459465 -0.06712241470813751 0.08374041318893433
0.0032564047724008556 -0.06792617589235306 0.08489540219306946
0.0032652423251420264 -0.06865418702363968 0.0860147699713707
0.003271671943366527 -0.0693090558052063 0.08709633350372314
0.0032749734818935394 -0.06990107893943787 0.08813143521547318
0.0032745779026299715 -0.07044640183448792 0.08910653740167618
0.0032701271120458846 -0.0709645226597786 0.09000527113676071
0.0032615121454000473 -0.07147908210754395 0.09080782532691956
0.0032488894648849964 -0.07201876491308212 0.09149010479450226
0.003232676535844803 -0.07261276245117188 0.09202761948108673
0.0032135276123881336 -0.07328348606824875 0.09240157157182693
0.003192296950146556 -0.07403986155986786 0.09260446578264236
0.0031699857208877806 -0.07487308979034424 0.09264368563890457
0.003147683572024107 -0.07575569301843643 0.09254228323698044
0.0031265048310160637 -0.07664384692907333 0.09233705699443817

CELLS 50 150
2 0 1
2 1 2
2 2 3
2 3 4
2 4 5
2 5 6
2 6 7
2 7 8
2 8 9
2 9 10
2 10 11
2 11 12
2 12 13
2 13 14
2 14 15
2 15 16
2 16 17
2 17 18
2 18 19
2 19 20
2 20 21
2 21 22
2 22 23
2 23 24
2 24 25
2 25 26
2 26 27
2 27 28
2 28 29
2 29 30
2 30 31
2 31 32
2 32 33
2 33 34
2 34 35
2 35 36
2 36 37
2 37 38
2 38 39
2 39 40
2 40 41
2 41 42
2 42 43
2 43 44
2 44 45
2 45 46
2 46 47
2 47 48
2 48 49
2 49 50

CELL_TYPES 50
4
4
4
4
4
4
4
4
4
4
4
4
4
4
4
4
4
4
4
4
4
4
4
4
4
4
4
4
4
4
4
4
4
4
4
4
4
4
4
4
4
4
4
4
4
4
4
4
4
4

POINT_DATA 51

SCALARS zone float
LOOKUP_TABLE default
1.0
1.0
1.0
1.0
1.0
1.0
1.0
1.0
1.0
1.0
1.0
1.0
1.0
1.0
1.0
1.0
1.0
1.0
1.0
1.0
1.0
1.0
1.0
1.0
1.0
1.0
1.0
1.0
1.0
1.0
1.0
1.0
1.0
1.0
1.0
1.0
1.0
1.0
1.0
1.0
1.0
1.0
1.0
1.0
1.0
1.0
1.0
1.0
1.0
1.0
1.0

VECTORS normals float
-0.00011546154564712197 -0.0013449958059936762 0.0015714714536443353
-0.00022074757725931704 -0.0025293200742453337 0.003228169633075595
-0.0002789688587654382 -0.0023027316201478243 0.003319113980978727
-0.00040420211735181516 -0.0021776307839900255 0.0033249002881348137
-0.00044531151070259506 -0.002136934082955122 0.003259863238781691
-0.0003278949297964573 -0.002304860157892108 0.0030197706073522568
-9.220571519108489e-5 -0.0025173730682581663 0.0027422653511166573
0.00013812060933560133 -0.0025096803437918425 0.0026495347265154123
0.0002748481638263911 -0.0024684169329702854 0.002584972884505987
0.0003148686664644629 -0.002487605670467019 0.0024696860928088427
0.00028992604347877204 -0.002414658199995756 0.0024317102506756783
0.00022987906413618475 -0.002319218358024955 0.002412608126178384
0.00015821750275790691 -0.002285758266225457 0.0023414986208081245
9.200429485645145e-5 -0.0022801754530519247 0.0022469975519925356
4.130187880946323e-5 -0.0022474073339253664 0.0021753073669970036
9.696207598608453e-6 -0.0021704412065446377 0.002140703843906522
-4.217552486807108e-6 -0.0020663330797106028 0.0021288751158863306
-5.062076070316834e-6 -0.001968648051843047 0.0021116568241268396
1.7121039945777738e-6 -0.0019016684964299204 0.002068673726171255
1.1616368283284828e-5 -0.0018650980200618503 0.0020001742523163557
2.149965257558506e-5 -0.001840185490436852 0.0019218925153836606
2.9418395570246506e-5 -0.0018066345946863294 0.0018508592620491982
3.442417073529214e-5 -0.0017552322242408993 0.001794805284589529
3.63165709131863e-5 -0.0016871313564479349 0.0017527629388496282
3.5412773286225274e-5 -0.001607609214261174 0.001720304135233164
3.2357384043280035e-5 -0.0015223025111481547 0.001692699152044952
2.7964591936324723e-5 -0.0014363566879183054 0.0016656304942443967
2.309120463905856e-5 -0.0013542211381718516 0.0016353646060451863
1.854042238846887e-5 -0.001279469346627593 0.0015989030944183469
1.493051149736857e-5 -0.0012141885235905647 0.0015544944908469915
1.2542826880235225e-5 -0.0011581206927075982 0.0015023552114143968
1.1316546078887768e-5 -0.0011088037863373756 0.0014445511624217033
1.0972400559694506e-5 -0.0010625961003825068 0.0013841382460668683
1.1129222002637107e-5 -0.0010155952768400311 0.0013243909925222397
1.1389166502340231e-5 -0.0009642840013839306 0.0012682604137808084
1.1396474292268977e-5 -0.0009059514850378036 0.0012180214980617166
1.0874458894249983e-5 -0.0008392565650865436 0.0011747993994504213
9.644884812587406e-6 -0.0007658858667127788 0.0011371789732947946
7.633578206878155e-6 -0.0006914378027431667 0.001100462512113154
4.865619757765671e-6 -0.0006234442116692662 0.0010583301773294806
1.4529367717841524e-6 -0.0005686720833182335 0.0010051036952063441
-2.4232347186625702e-6 -0.0005317247123457491 0.0009369204053655267
-6.532860879815417e-6 -0.0005163423484191298 0.0008506419835612178
-1.0618759006320033e-5 -0.0005271189729683101 0.0007424135110341012
-1.4417873899219556e-5 -0.0005668390658684075 0.0006098987068980932
-1.7680962628219277e-5 -0.000632359879091382 0.0004557344072964043
-2.018977284024004e-5 -0.0007135495543479919 0.00028842242318205535
-2.1771005776827224e-5 -0.0007948034326545893 0.00012105652422178538
-2.2306650862446986e-5 -0.0008579181157983841 -3.108873715973459e-5
-2.1740446754847653e-5 -0.0008853764738887547 -0.0001533148024464026
-1.058942416420905e-5 -0.0004440738121047616 -0.00010261646821163596

CELL_DATA 50

VECTORS liftinglineloading               float
0.13158513605594635 -0.07795847207307816 -0.07795847207307816
0.1954871416091919 -0.1320180743932724 -0.1320180743932724
-0.06855703890323639 -0.035538721829652786 -0.035538721829652786
0.13215309381484985 -0.05022668465971947 -0.05022668465971947
0.13036608695983887 -0.08832547813653946 -0.08832547813653946
-0.5471917986869812 -0.28932327032089233 -0.28932327032089233
-1.704628586769104 -0.628588080406189 -0.628588080406189
-3.341202259063721 -1.0242782831192017 -1.0242782831192017
-5.258109092712402 -1.4233629703521729 -1.4233629703521729
-7.432487964630126 -1.839879274368286 -1.839879274368286
-9.584396362304688 -2.2111642360687256 -2.2111642360687256
-11.487504959106445 -2.509861469268799 -2.509861469268799
-12.751659393310547 -2.6678333282470703 -2.6678333282470703
-13.753037452697752 -2.7862303256988525 -2.7862303256988525
-14.524285316467285 -2.8327455520629883 -2.8327455520629883
-15.099944114685057 -2.8374364376068115 -2.8374364376068115
-15.254971504211424 -2.7515029907226562 -2.7515029907226562
-15.24494171142578 -2.6807823181152344 -2.6807823181152344
-15.946189880371094 -2.674670934677124 -2.674670934677124
-15.85689926147461 -2.573375701904297 -2.573375701904297
-15.826506614685059 -2.5084545612335205 -2.5084545612335205
-15.75011920928955 -2.391082525253296 -2.391082525253296
-16.062408447265625 -2.4375126361846924 -2.4375126361846924
-15.787434577941895 -2.336064577102661 -2.336064577102661
-16.608657836914062 -2.348360061645508 -2.348360061645508
-17.827396392822266 -2.2897891998291016 -2.2897891998291016
-18.32353401184082 -2.252279758453369 -2.252279758453369
-19.87483024597168 -2.3852710723876953 -2.3852710723876953
-21.27741813659668 -2.395430088043213 -2.395430088043213
-22.37110137939453 -2.3575308322906494 -2.3575308322906494
-23.544174194335938 -2.247748851776123 -2.247748851776123
-24.15290069580078 -2.1038293838500977 -2.1038293838500977
-24.73828125 -2.0584216117858887 -2.0584216117858887
-25.0844783782959 -1.8843067884445193 -1.8843067884445193
-25.126644134521484 -1.7976030111312866 -1.7976030111312866
-24.916973114013672 -1.680747151374817 -1.680747151374817
-24.465749740600586 -1.512972116470337 -1.512972116470337
-23.558895111083984 -1.4129142761230469 -1.4129142761230469
-22.56299591064453 -1.3407543897628784 -1.3407543897628784
-21.562517166137695 -1.2281663417816162 -1.2281663417816162
-20.5616455078125 -1.1594380140304565 -1.1594380140304565
-18.53883171081543 -1.11759614944458 -1.11759614944458
-15.492480278015137 -1.1582244634628296 -1.1582244634628296
-12.991540908813478 -1.1293306350708008 -1.1293306350708008
-10.53825569152832 -1.2765322923660278 -1.2765322923660278
-8.918135643005371 -1.314933180809021 -1.314933180809021
-7.066789150238037 -1.2952736616134644 -1.2952736616134644
-5.420875072479248 -1.2843161821365356 -1.2843161821365356
-3.564398288726806 -1.2519028186798096 -1.2519028186798096
-1.9242194890975952 -1.2144434452056885 -1.2144434452056885