# vtk DataFile Version 4.0
 
ASCII
DATASET UNSTRUCTURED_GRID
POINTS 51 float
0.0032294827979058027 -0.005831053946167231 -0.004897697363048792
0.0029985597357153893 -0.006862686015665532 -0.0089039271697402
0.0027879877015948296 -0.008218260481953621 -0.012744696810841559
0.0024406220763921738 -0.009658819064497948 -0.016484033316373825
0.001979583641514182 -0.011167382821440697 -0.02012648619711399
0.0015499991131946445 -0.01254807598888874 -0.023724542930722237
0.0013237936655059457 -0.013470659032464026 -0.027366686612367627
0.00136558769736439 -0.014152929186820984 -0.030994562432169914
0.0016000348841771481 -0.014932415448129177 -0.03451772779226303
0.0019152839668095112 -0.01555624883621931 -0.038003940135240555
0.002229772275313735 -0.016124848276376724 -0.041426289826631546
0.002495136111974716 -0.016770146787166595 -0.0447494275867939
0.002689530374482274 -0.01741693541407585 -0.047993503510951996
0.00281157111749053 -0.017984120175242424 -0.05118025094270707
0.0028735389932990074 -0.018482491374015808 -0.054306775331497185
0.00289417477324605 -0.018969815224409103 -0.05735759809613228
0.0028929314576089382 -0.01949978619813919 -0.06031833216547966
0.0028857397846877575 -0.020087160170078278 -0.06318502873182297
0.002882807282730937 -0.020700983703136444 -0.06596597284078598
0.002889164024963975 -0.021294772624969482 -0.06867361813783646
0.002906039822846651 -0.021838324144482613 -0.07131607085466385
0.0029321631882339716 -0.022332442924380302 -0.07389310747385025
0.002964876824989915 -0.02279810793697834 -0.07639911025762558
0.003001011675223708 -0.02325936034321785 -0.0788276270031929
0.003037509974092245 -0.02373426966369152 -0.08117382973432541
0.0030718371272087097 -0.024233568459749222 -0.08343483507633209
0.003102224553003907 -0.02476111240684986 -0.08560960739850998
0.0031277663074433804 -0.025314657017588615 -0.08769875764846802
0.0031484069768339396 -0.025886837393045422 -0.0897042453289032
0.0031648471485823393 -0.026466399431228638 -0.09162910282611847
0.0031782679725438356 -0.027040712535381317 -0.09347669780254364
0.0031899327877908945 -0.027599172666668892 -0.09524988383054733
0.0032009012065827847 -0.028135359287261966 -0.09695038199424744
0.003211877541616559 -0.028647851198911667 -0.0985785648226738
0.003223159583285451 -0.02914007194340229 -0.100133515894413
0.003234656061977148 -0.02961946651339531 -0.10161323845386505
0.0032459525391459465 -0.030096296221017838 -0.1030149906873703
0.0032564047724008556 -0.030581390485167503 -0.10433587431907654
0.0032652423251420264 -0.031080752611160282 -0.10557426512241364
0.003271671943366527 -0.03159109875559807 -0.10673105716705322
0.0032749734818935394 -0.03209943324327469 -0.10780972242355347
0.0032745779026299715 -0.03258540853857994 -0.10881572216749191
0.0032701271120458846 -0.03302442282438278 -0.10975564271211624
0.0032615121454000473 -0.03338669613003731 -0.11063746362924576
0.0032488894648849964 -0.03363603726029396 -0.11147088557481766
0.003232676535844803 -0.033735644072294235 -0.11226576566696167
0.0032135276123881336 -0.033657256513834 -0.11302968114614488
0.003192296950146556 -0.0333896167576313 -0.1137656420469284
0.0031699857208877806 -0.03294382244348526 -0.11447067558765411
0.003147683572024107 -0.03235452249646187 -0.11513550579547882
0.0031265048310160637 -0.03167698159813881 -0.11574532091617584

CELLS 50 150
2 0 1
2 1 2
2 2 3
2 3 4
2 4 5
2 5 6
2 6 7
2 7 8
2 8 9
2 9 10
2 10 11
2 11 12
2 12 13
2 13 14
2 14 15
2 15 16
2 16 17
2 17 18
2 18 19
2 19 20
2 20 21
2 21 22
2 22 23
2 23 24
2 24 25
2 25 26
2 26 27
2 27 28
2 28 29
2 29 30
2 30 31
2 31 32
2 32 33
2 33 34
2 34 35
2 35 36
2 36 37
2 37 38
2 38 39
2 39 40
2 40 41
2 41 42
2 42 43
2 43 44
2 44 45
2 45 46
2 46 47
2 47 48
2 48 49
2 49 50

CELL_TYPES 50
4
4
4
4
4
4
4
4
4
4
4
4
4
4
4
4
4
4
4
4
4
4
4
4
4
4
4
4
4
4
4
4
4
4
4
4
4
4
4
4
4
4
4
4
4
4
4
4
4
4

POINT_DATA 51

SCALARS zone float
LOOKUP_TABLE default
1.0
1.0
1.0
1.0
1.0
1.0
1.0
1.0
1.0
1.0
1.0
1.0
1.0
1.0
1.0
1.0
1.0
1.0
1.0
1.0
1.0
1.0
1.0
1.0
1.0
1.0
1.0
1.0
1.0
1.0
1.0
1.0
1.0
1.0
1.0
1.0
1.0
1.0
1.0
1.0
1.0
1.0
1.0
1.0
1.0
1.0
1.0
1.0
1.0
1.0
1.0

VECTORS normals float
-0.00011546154564712197 -0.0005158161511644721 -0.0020031151361763477
-0.00022074757725931704 -0.001193603384308517 -0.003923499491065741
-0.0002789688587654382 -0.0013980665244162083 -0.0037900528404861684
-0.00040420211735181516 -0.0014745612861588597 -0.0036908951587975025
-0.00044531151070259506 -0.0014446285786107183 -0.0036202545743435626
-0.0003278949297964573 -0.0011516378726810217 -0.003620100207626819
-9.220571519108489e-5 -0.000802426366135478 -0.003635010216385126
0.00013812060933560133 -0.0007308783242478967 -0.003575520357117057
0.0002748481638263911 -0.0007016599993221462 -0.0035046883858740325
0.0003148686664644629 -0.0005962163559161127 -0.003454280784353614
0.00028992604347877204 -0.0006069493247196078 -0.003372743958607316
0.00022987906413618475 -0.0006460438598878682 -0.003283607540652156
0.00015821750275790691 -0.0006069862865842879 -0.0032154121436178684
9.200429485645145e-5 -0.0005327776889316738 -0.0031566352117806673
4.130187880946323e-5 -0.0004928476409986615 -0.0030886733438819647
9.696207598608453e-6 -0.0005086479941383004 -0.0030057786498218775
-4.217552486807108e-6 -0.0005586724728345871 -0.002913713688030839
-5.062076070316834e-6 -0.0006005979375913739 -0.0028238187078386545
1.7121039945777738e-6 -0.0006038060528226197 -0.002744298195466399
1.1616368283284828e-5 -0.0005686705699190497 -0.0026750515680760145
2.149965257558506e-5 -0.0005188352079130709 -0.002609743969514966
2.9418395570246506e-5 -0.0004798921581823379 -0.0025415176060050726
3.442417073529214e-5 -0.0004634586221072823 -0.0024672599975019693
3.63165709131863e-5 -0.00046808051411062484 -0.002387360669672489
3.5412773286225274e-5 -0.0004871039418503642 -0.002303602173924446
3.2357384043280035e-5 -0.0005134211387485266 -0.002217889530584216
2.7964591936324723e-5 -0.0005405442789196968 -0.002131961053237319
2.309120463905856e-5 -0.0005628629587590694 -0.0020473196636885405
1.854042238846887e-5 -0.000575871323235333 -0.001965173054486513
1.493051149736857e-5 -0.0005769373965449631 -0.0018862263532355428
1.2542826880235225e-5 -0.0005663865595124662 -0.0018103924812749028
1.1316546078887768e-5 -0.000547323317732662 -0.001736839418299496
1.0972400559694506e-5 -0.000524339615367353 -0.0016643368871882558
1.1129222002637107e-5 -0.0005023560370318592 -0.0015915663680061696
1.1389166502340231e-5 -0.000485807511722669 -0.0015173394931480289
1.1396474292268977e-5 -0.0004781123425345868 -0.0014407404232770205
1.0874458894249983e-5 -0.0004809615202248096 -0.0013613159535452724
9.644884812587406e-6 -0.0004922283696942031 -0.0012796360533684492
7.633578206878155e-6 -0.0005048536695539951 -0.0011975920060649514
4.865619757765671e-6 -0.0005093403742648661 -0.0011177288834005594
1.4529367717841524e-6 -0.0004971558228135109 -0.001042332616634667
-2.4232347186625702e-6 -0.0004624954890459776 -0.0009729588637128472
-6.532860879815417e-6 -0.0004006433009635657 -0.0009108710801228881
-1.0618759006320033e-5 -0.00030580651946365833 -0.0008576214895583688
-1.4417873899219556e-5 -0.00017447423306293786 -0.0008141508442349733
-1.7680962628219277e-5 -1.0609043783915695e-5 -0.0007793973782099783
-2.018977284024004e-5 0.00017301339539699256 -0.0007499378989450634
-2.1771005776827224e-5 0.0003567168314475566 -0.0007205000729300082
-2.2306650862446986e-5 0.0005175480036996305 -0.0006849336205050349
-2.1740446754847653e-5 0.0006334192003123462 -0.0006373202195391059
-1.058942416420905e-5 0.00033876876113936305 -0.0003049055812880397

CELL_DATA 50

VECTORS liftinglineloading               float
0.2024115025997162 0.14818252623081207 -0.026128578931093216
0.29231083393096924 0.2508525848388672 -0.0442320816218853
-0.30916628241539 0.20014911890029907 -0.03529169037938118
0.05214432254433632 0.05376318097114563 -0.00947989895939827
0.3192919194698334 0.0491420142352581 -0.008665062487125397
-0.2161933034658432 0.27839380502700806 -0.04908834025263786
-1.3571557998657227 0.7695630192756653 -0.1356947124004364
-3.041607141494751 1.380634069442749 -0.24344302713871
-5.067716598510742 1.9823191165924072 -0.34953632950782776
-7.313628196716309 2.5868937969207764 -0.4561391770839691
-9.577603340148926 3.1290388107299805 -0.5517339706420898
-11.532856941223145 3.553673028945923 -0.6266084313392639
-12.837872505187988 3.7770462036132812 -0.665995180606842
-13.870293617248535 3.9402623176574703 -0.6947745680809021
-14.65781307220459 3.9997172355651855 -0.7052580714225769
-15.256499290466307 4.004052639007568 -0.7060225009918213
-15.444873809814453 3.8820674419403076 -0.6845132112503052
-15.446153640747072 3.781365156173706 -0.6667566895484924
-16.290966033935547 3.785660743713379 -0.6675141453742981
-16.35093879699707 3.655588388442993 -0.6445788741111755
-16.496522903442383 3.5782535076141357 -0.6309426426887512
-16.547822952270508 3.420536279678345 -0.6031328439712524
-17.04191780090332 3.4890050888061523 -0.6152057647705078
-16.942190170288086 3.3543615341186523 -0.5914644598960876
-17.900312423706055 3.3671727180480957 -0.5937234163284302
-19.168596267700195 3.279201984405518 -0.578211784362793
-19.783538818359375 3.228020191192627 -0.5691870450973511
-21.224193572998047 3.3820023536682124 -0.5963382720947266
-22.574520111083984 3.3801600933074947 -0.5960134267807007
-23.524513244628906 3.3104538917541504 -0.5837223529815674
-24.251131057739258 3.1469411849975586 -0.5548906326293945
-24.786376953125 2.936157464981079 -0.517723798751831
-25.170059204101562 2.8738486766815186 -0.5067370533943176
-25.252954483032227 2.627516746520996 -0.4633021056652069
-25.06589698791504 2.5121915340423584 -0.44296714663505554
-24.663471221923828 2.3551528453826904 -0.4152770042419433
-24.056800842285156 2.1223106384277344 -0.374220609664917
-23.068634033203125 1.9852824211120605 -0.3500588536262512
-21.956289291381836 1.8848885297775269 -0.33235669136047363
-21.110761642456055 1.7291963100433347 -0.30490395426750183
-20.030479431152344 1.6319583654403687 -0.2877582907676697
-17.98969841003418 1.569884181022644 -0.27681294083595276
-14.954859733581545 1.6139986515045166 -0.28459152579307556
-12.500423431396484 1.5684385299682617 -0.2765580415725708
-10.058944702148438 1.7528879642486572 -0.30908143520355225
-8.456908226013184 1.8027008771896362 -0.3178648054599762
-6.667893886566162 1.7701762914657593 -0.3121298551559448
-5.083274841308594 1.754049062728882 -0.3092861771583557
-3.3382530212402344 1.7089495658874512 -0.3013339042663574
-1.7860026359558105 1.6541703939437866 -0.2916748821735382