# vtk DataFile Version 4.0
 
ASCII
DATASET UNSTRUCTURED_GRID
POINTS 51 float
0.0032294827979058027 -0.0006674036267213523 0.007585723418742418
0.0029985597357153893 -0.0033573952969163656 0.010728666558861732
0.0027879877015948296 -0.005726043600589037 0.014042062684893608
0.0024406220763921738 -0.00796285830438137 0.017366893589496613
0.001979583641514182 -0.010081305168569088 0.02069186232984066
0.0015499991131946445 -0.012236726470291615 0.02388662099838257
0.0013237936655059457 -0.014691025950014593 0.026731405407190323
0.00136558769736439 -0.01727147214114666 0.02937115170061588
0.0016000348841771481 -0.01971038617193699 0.03203047439455986
0.0019152839668095112 -0.022208306938409805 0.03454109653830528
0.002229772275313735 -0.02468559704720974 0.03696984425187111
0.002495136111974716 -0.027037624269723892 0.03940451890230179
0.002689530374482274 -0.029324034228920937 0.04179506376385689
0.00281157111749053 -0.03160914033651352 0.04408751428127289
0.0028735389932990074 -0.033884383738040924 0.04628905653953552
0.00289417477324605 -0.036103956401348114 0.04843813180923462
0.0028929314576089382 -0.038225267082452774 0.05057046562433243
0.0028857397846877575 -0.04023662209510803 0.05269588157534599
0.002882807282730937 -0.042162563651800156 0.05479377880692482
0.002889164024963975 -0.04403995722532272 0.05683322623372077
0.002906039822846651 -0.045892760157585144 0.05879412591457366
0.0029321631882339716 -0.047720327973365784 0.06067701429128647
0.002964876824989915 -0.04950602725148201 0.06249584630131721
0.003001011675223708 -0.051230791956186295 0.0642666220664978
0.003037509974092245 -0.052880290895700455 0.06600137054920197
0.0030718371272087097 -0.054446011781692505 0.06770723313093185
0.003102224553003907 -0.055924896150827415 0.06938677281141281
0.0031277663074433804 -0.05731872469186783 0.07103849202394485
0.0031484069768339396 -0.058633338660001755 0.0726574957370758
0.0031648471485823393 -0.0598776638507843 0.07423629611730576
0.0031782679725438356 -0.06106171384453774 0.07576648890972137
0.0031899327877908945 -0.06219390407204628 0.07724101096391678
0.0032009012065827847 -0.06327932327985764 0.07865559309720993
0.003211877541616559 -0.06431909650564194 0.08000928908586502
0.003223159583285451 -0.0653105154633522 0.08130437135696411
0.003234656061977148 -0.06624766439199448 0.08254580944776535
0.0032459525391459465 -0.06712241470813751 0.08374041318893433
0.0032564047724008556 -0.06792617589235306 0.08489540219306946
0.0032652423251420264 -0.06865418702363968 0.0860147699713707
0.003271671943366527 -0.0693090558052063 0.08709633350372314
0.0032749734818935394 -0.06990107893943787 0.08813143521547318
0.0032745779026299715 -0.07044640183448792 0.08910653740167618
0.0032701271120458846 -0.0709645226597786 0.09000527113676071
0.0032615121454000473 -0.07147908210754395 0.09080782532691956
0.0032488894648849964 -0.07201876491308212 0.09149010479450226
0.003232676535844803 -0.07261276245117188 0.09202761948108673
0.0032135276123881336 -0.07328348606824875 0.09240157157182693
0.003192296950146556 -0.07403986155986786 0.09260446578264236
0.0031699857208877806 -0.07487308979034424 0.09264368563890457
0.003147683572024107 -0.07575569301843643 0.09254228323698044
0.0031265048310160637 -0.07664384692907333 0.09233705699443817

CELLS 50 150
2 0 1
2 1 2
2 2 3
2 3 4
2 4 5
2 5 6
2 6 7
2 7 8
2 8 9
2 9 10
2 10 11
2 11 12
2 12 13
2 13 14
2 14 15
2 15 16
2 16 17
2 17 18
2 18 19
2 19 20
2 20 21
2 21 22
2 22 23
2 23 24
2 24 25
2 25 26
2 26 27
2 27 28
2 28 29
2 29 30
2 30 31
2 31 32
2 32 33
2 33 34
2 34 35
2 35 36
2 36 37
2 37 38
2 38 39
2 39 40
2 40 41
2 41 42
2 42 43
2 43 44
2 44 45
2 45 46
2 46 47
2 47 48
2 48 49
2 49 50

CELL_TYPES 50
4
4
4
4
4
4
4
4
4
4
4
4
4
4
4
4
4
4
4
4
4
4
4
4
4
4
4
4
4
4
4
4
4
4
4
4
4
4
4
4
4
4
4
4
4
4
4
4
4
4

POINT_DATA 51

SCALARS zone float
LOOKUP_TABLE default
1.0
1.0
1.0
1.0
1.0
1.0
1.0
1.0
1.0
1.0
1.0
1.0
1.0
1.0
1.0
1.0
1.0
1.0
1.0
1.0
1.0
1.0
1.0
1.0
1.0
1.0
1.0
1.0
1.0
1.0
1.0
1.0
1.0
1.0
1.0
1.0
1.0
1.0
1.0
1.0
1.0
1.0
1.0
1.0
1.0
1.0
1.0
1.0
1.0
1.0
1.0

VECTORS normals float
-0.00011546154564712197 -0.0013449958059936762 0.0015714714536443353
-0.00022074757725931704 -0.0025293200742453337 0.003228169633075595
-0.0002789688587654382 -0.0023027316201478243 0.003319113980978727
-0.00040420211735181516 -0.0021776307839900255 0.0033249002881348137
-0.00044531151070259506 -0.002136934082955122 0.003259863238781691
-0.0003278949297964573 -0.002304860157892108 0.0030197706073522568
-9.220571519108489e-5 -0.0025173730682581663 0.0027422653511166573
0.00013812060933560133 -0.0025096803437918425 0.0026495347265154123
0.0002748481638263911 -0.0024684169329702854 0.002584972884505987
0.0003148686664644629 -0.002487605670467019 0.0024696860928088427
0.00028992604347877204 -0.002414658199995756 0.0024317102506756783
0.00022987906413618475 -0.002319218358024955 0.002412608126178384
0.00015821750275790691 -0.002285758266225457 0.0023414986208081245
9.200429485645145e-5 -0.0022801754530519247 0.0022469975519925356
4.130187880946323e-5 -0.0022474073339253664 0.0021753073669970036
9.696207598608453e-6 -0.0021704412065446377 0.002140703843906522
-4.217552486807108e-6 -0.0020663330797106028 0.0021288751158863306
-5.062076070316834e-6 -0.001968648051843047 0.0021116568241268396
1.7121039945777738e-6 -0.0019016684964299204 0.002068673726171255
1.1616368283284828e-5 -0.0018650980200618503 0.0020001742523163557
2.149965257558506e-5 -0.001840185490436852 0.0019218925153836606
2.9418395570246506e-5 -0.0018066345946863294 0.0018508592620491982
3.442417073529214e-5 -0.0017552322242408993 0.001794805284589529
3.63165709131863e-5 -0.0016871313564479349 0.0017527629388496282
3.5412773286225274e-5 -0.001607609214261174 0.001720304135233164
3.2357384043280035e-5 -0.0015223025111481547 0.001692699152044952
2.7964591936324723e-5 -0.0014363566879183054 0.0016656304942443967
2.309120463905856e-5 -0.0013542211381718516 0.0016353646060451863
1.854042238846887e-5 -0.001279469346627593 0.0015989030944183469
1.493051149736857e-5 -0.0012141885235905647 0.0015544944908469915
1.2542826880235225e-5 -0.0011581206927075982 0.0015023552114143968
1.1316546078887768e-5 -0.0011088037863373756 0.0014445511624217033
1.0972400559694506e-5 -0.0010625961003825068 0.0013841382460668683
1.1129222002637107e-5 -0.0010155952768400311 0.0013243909925222397
1.1389166502340231e-5 -0.0009642840013839306 0.0012682604137808084
1.1396474292268977e-5 -0.0009059514850378036 0.0012180214980617166
1.0874458894249983e-5 -0.0008392565650865436 0.0011747993994504213
9.644884812587406e-6 -0.0007658858667127788 0.0011371789732947946
7.633578206878155e-6 -0.0006914378027431667 0.001100462512113154
4.865619757765671e-6 -0.0006234442116692662 0.0010583301773294806
1.4529367717841524e-6 -0.0005686720833182335 0.0010051036952063441
-2.4232347186625702e-6 -0.0005317247123457491 0.0009369204053655267
-6.532860879815417e-6 -0.0005163423484191298 0.0008506419835612178
-1.0618759006320033e-5 -0.0005271189729683101 0.0007424135110341012
-1.4417873899219556e-5 -0.0005668390658684075 0.0006098987068980932
-1.7680962628219277e-5 -0.000632359879091382 0.0004557344072964043
-2.018977284024004e-5 -0.0007135495543479919 0.00028842242318205535
-2.1771005776827224e-5 -0.0007948034326545893 0.00012105652422178538
-2.2306650862446986e-5 -0.0008579181157983841 -3.108873715973459e-5
-2.1740446754847653e-5 -0.0008853764738887547 -0.0001533148024464026
-1.058942416420905e-5 -0.0004440738121047616 -0.00010261646821163596

CELL_DATA 50

VECTORS liftinglineloading               float
0.12632812559604645 -0.07706563174724579 -0.07706563174724579
0.18112151324748993 -0.1255621761083603 -0.1255621761083603
-0.07079187035560608 -0.03950696066021919 -0.03950696066021919
0.13753220438957214 -0.05181536450982094 -0.05181536450982094
0.1606961041688919 -0.08212860673666 -0.08212860673666
-0.4953649342060089 -0.27775371074676514 -0.27775371074676514
-1.5874003171920776 -0.606725811958313 -0.606725811958313
-3.137194871902466 -1.0011953115463257 -1.0011953115463257
-4.9265947341918945 -1.3938466310501099 -1.3938466310501099
-6.9567060470581055 -1.803326487541199 -1.803326487541199
-9.012510299682617 -2.1741766929626465 -2.1741766929626465
-10.793378829956055 -2.473278045654297 -2.473278045654297
-11.937243461608887 -2.6311256885528564 -2.6311256885528564
-12.857475280761719 -2.7396626472473145 -2.7396626472473145
-13.497044563293459 -2.7633588314056396 -2.7633588314056396
-14.62851619720459 -2.8200528621673584 -2.8200528621673584
-14.775139808654783 -2.721461772918701 -2.721461772918701
-13.761734008789062 -2.5562803745269775 -2.5562803745269775
-14.452804565429688 -2.5567104816436768 -2.5567104816436768
-14.412457466125488 -2.467787981033325 -2.467787981033325
-14.401485443115234 -2.409759044647217 -2.409759044647217
-14.489615440368652 -2.311501979827881 -2.311501979827881
-14.837812423706055 -2.3715291023254395 -2.3715291023254395
-14.611747741699219 -2.2773067951202393 -2.2773067951202393
-15.516865730285643 -2.3031117916107178 -2.3031117916107178
-16.870052337646484 -2.25614857673645 -2.25614857673645
-17.44022560119629 -2.2230637073516846 -2.2230637073516846
-19.204120635986328 -2.3752567768096924 -2.3752567768096924
-20.759862899780273 -2.3942885398864746 -2.3942885398864746
-21.78839874267578 -2.358915090560913 -2.358915090560913
-22.93587303161621 -2.2511508464813232 -2.2511508464813232
-23.943683624267578 -2.1138522624969482 -2.1138522624969482
-24.570226669311523 -2.067322015762329 -2.067322015762329
-24.953582763671875 -1.8965741395950317 -1.8965741395950317
-25.025754928588867 -1.8091567754745483 -1.8091567754745483
-24.84966468811035 -1.6912554502487185 -1.6912554502487185
-24.431154251098633 -1.5211296081542969 -1.5211296081542969
-23.561647415161133 -1.4198695421218872 -1.4198695421218872
-22.506309509277344 -1.3477492332458496 -1.3477492332458496
-21.513736724853516 -1.2351016998291016 -1.2351016998291016
-20.5146484375 -1.1653506755828857 -1.1653506755828857
-18.494686126708984 -1.1225478649139404 -1.1225478649139404
-15.445892333984375 -1.1616051197052002 -1.1616051197052002
-12.945667266845703 -1.131908655166626 -1.131908655166626
-10.469954490661621 -1.2764948606491089 -1.2764948606491089
-8.846951484680176 -1.3143994808197021 -1.3143994808197021
-6.998833179473877 -1.2937449216842651 -1.2937449216842651
-5.356366157531738 -1.2823128700256348 -1.2823128700256348
-3.529345989227295 -1.2507764101028442 -1.2507764101028442
-1.8978741168975832 -1.212214708328247 -1.212214708328247