# vtk DataFile Version 4.0
 
ASCII
DATASET UNSTRUCTURED_GRID
POINTS 51 float
0.0032294827979058027 -0.0019673160277307034 -0.0073565137572586545
0.0029985597357153893 -0.0005145004251971841 -0.011229945346713066
0.0027879877015948296 0.0005780527135357261 -0.015153644606471062
0.0024406220763921738 0.0015428115148097277 -0.019043000414967537
0.001979583641514182 0.0023962941486388445 -0.022892000153660774
0.0015499991131946445 0.0033290560822933912 -0.02663128823041916
0.0013237936655059457 0.004662369377911091 -0.030143929645419117
0.00136558769736439 0.0061843497678637505 -0.03350704535841942
0.0016000348841771481 0.007566636893898249 -0.03684014827013016
0.0019152839668095112 0.009055230766534805 -0.040053702890872955
0.002229772275313735 0.010552441701292992 -0.04318326339125633
0.002495136111974716 0.011929916217923164 -0.046275544911623
0.002689530374482274 0.013260825537145136 -0.049303922802209854
0.00281157111749053 0.014624057337641716 -0.05223967507481576
0.0028735389932990074 0.016009116545319557 -0.055086627602577216
0.00289417477324605 0.01735980436205864 -0.057865232229232795
0.0028929314576089382 0.01862388476729393 -0.06059450283646583
0.0028857397846877575 0.019787002354860306 -0.0632796660065651
0.002882807282730937 0.020879274234175682 -0.06590975821018219
0.002889164024963975 0.02194591425359249 -0.06846831738948822
0.002906039822846651 0.0230163112282753 -0.0709446519613266
0.0029321631882339716 0.02408968098461628 -0.0733390524983406
0.002964876824989915 0.02514561079442501 -0.07565894722938538
0.003001011675223708 0.026160718873143196 -0.077912837266922
0.003037509974092245 0.027117419987916946 -0.08010713011026382
0.0030718371272087097 0.028005277737975117 -0.08224561810493469
0.003102224553003907 0.028820538893342018 -0.08432967960834503
0.0031277663074433804 0.029565386474132538 -0.08635850250720978
0.0031484069768339396 0.03024698793888092 -0.0883295014500618
0.0031648471485823393 0.030876288190484043 -0.09023866802453995
0.0031782679725438356 0.03146557882428169 -0.09208154678344727
0.0031899327877908945 0.03202517330646515 -0.0938543751835823
0.0032009012065827847 0.03256131708621979 -0.095554880797863
0.003211877541616559 0.03307539224624634 -0.09718256443738937
0.003223159583285451 0.03356407582759857 -0.09873863309621811
0.003234656061977148 0.034020114690065384 -0.10022572427988052
0.0032459525391459465 0.03443353250622749 -0.10164746642112733
0.0032564047724008556 0.03479379042983055 -0.10300770401954651
0.0032652423251420264 0.03509505093097687 -0.1043085604906082
0.003271671943366527 0.035340506583452225 -0.10554887354373933
0.0032749734818935394 0.0355428010225296 -0.10672403126955032
0.0032745779026299715 0.035721730440855026 -0.10782684385776521
0.0032701271120458846 0.03590122610330582 -0.10884858667850493
0.0032615121454000473 0.03611026331782341 -0.1097787246108055
0.0032488894648849964 0.03638404235243797 -0.11060444265604019
0.003232676535844803 0.03675837442278862 -0.11131270229816438
0.0032135276123881336 0.037260752171278 -0.11189350485801697
0.003192296950146556 0.037902116775512695 -0.11234285682439803
0.0031699857208877806 0.03867168352007866 -0.11266469210386278
0.003147683572024107 0.03953574225306511 -0.11287127435207368
0.0031265048310160637 0.04044052213430405 -0.11298218369483946

CELLS 50 150
2 0 1
2 1 2
2 2 3
2 3 4
2 4 5
2 5 6
2 6 7
2 7 8
2 8 9
2 9 10
2 10 11
2 11 12
2 12 13
2 13 14
2 14 15
2 15 16
2 16 17
2 17 18
2 18 19
2 19 20
2 20 21
2 21 22
2 22 23
2 23 24
2 24 25
2 25 26
2 26 27
2 27 28
2 28 29
2 29 30
2 30 31
2 31 32
2 32 33
2 33 34
2 34 35
2 35 36
2 36 37
2 37 38
2 38 39
2 39 40
2 40 41
2 41 42
2 42 43
2 43 44
2 44 45
2 45 46
2 46 47
2 47 48
2 48 49
2 49 50

CELL_TYPES 50
4
4
4
4
4
4
4
4
4
4
4
4
4
4
4
4
4
4
4
4
4
4
4
4
4
4
4
4
4
4
4
4
4
4
4
4
4
4
4
4
4
4
4
4
4
4
4
4
4
4

POINT_DATA 51

SCALARS zone float
LOOKUP_TABLE default
1.0
1.0
1.0
1.0
1.0
1.0
1.0
1.0
1.0
1.0
1.0
1.0
1.0
1.0
1.0
1.0
1.0
1.0
1.0
1.0
1.0
1.0
1.0
1.0
1.0
1.0
1.0
1.0
1.0
1.0
1.0
1.0
1.0
1.0
1.0
1.0
1.0
1.0
1.0
1.0
1.0
1.0
1.0
1.0
1.0
1.0
1.0
1.0
1.0
1.0
1.0

VECTORS normals float
-0.00011546154564712197 0.0007264077430590987 -0.0019367157947272062
-0.00022074757725931704 0.0012726843124255538 -0.003898565424606204
-0.0002789688587654382 0.0010286560282111168 -0.003906527534127235
-0.00040420211735181516 0.0009091206593438983 -0.0038691780064255
-0.00044531151070259506 0.0008931222837418318 -0.003794143907725811
-0.0003278949297964573 0.001133037731051445 -0.0036259647458791733
-9.220571519108489e-5 0.0014276469592005014 -0.0034378787968307734
0.00013812060933560133 0.001452133757993579 -0.0033481093123555183
0.0002748481638263911 0.0014354404993355274 -0.003273328300565481
0.0003148686664644629 0.0014929022872820497 -0.0031715568620711565
0.00028992604347877204 0.0014373427256941795 -0.0031109219416975975
0.00022987906413618475 0.0013541918015107512 -0.003060329472646117
0.00015821750275790691 0.0013470705598592758 -0.0029820643831044436
9.200429485645145e-5 0.0013741456205025315 -0.002891352865844965
4.130187880946323e-5 0.0013678731629624963 -0.0028127788100391626
9.696207598608453e-6 0.001307383761741221 -0.002753938315436244
-4.217552486807108e-6 0.001213599811308086 -0.0027072159573435783
-5.062076070316834e-6 0.0011276948498561978 -0.002657625824213028
1.7121039945777738e-6 0.001079455716535449 -0.002594326389953494
1.1616368283284828e-5 0.0010685189627110958 -0.0025174501352012157
2.149965257558506e-5 0.001071882783435285 -0.0024353687185794115
2.9418395570246506e-5 0.0010646500159054995 -0.0023571441415697336
3.442417073529214e-5 0.001035519177094102 -0.0022868900559842587
3.63165709131863e-5 0.0009859047131612897 -0.0022240912076085806
3.5412773286225274e-5 0.0009222797816619277 -0.0021663918159902096
3.2357384043280035e-5 0.0008515592198818921 -0.0021112749818712473
2.7964591936324723e-5 0.0007800546009093523 -0.0020564435981214046
2.309120463905856e-5 0.0007132239989005029 -0.001999910920858383
1.854042238846887e-5 0.0006554507999680936 -0.0019400817109271882
1.493051149736857e-5 0.0006092955591157079 -0.0018760239472612739
1.2542826880235225e-5 0.0005744417430832982 -0.0018078526481986046
1.1316546078887768e-5 0.0005478691309690475 -0.001736667356453836
1.0972400559694506e-5 0.0005251105758361518 -0.0016640938119962811
1.1129222002637107e-5 0.0005013789632357657 -0.0015918744029477236
1.1389166502340231e-5 0.0004723599995486438 -0.0015215794555842876
1.1396474292268977e-5 0.0004347280482761562 -0.001454419456422329
1.0874458894249983e-5 0.00038683813181705773 -0.00139099289663136
9.644884812587406e-6 0.00033075918327085674 -0.001330547034740448
7.633578206878155e-6 0.0002733586588874459 -0.001270582084544003
4.865619757765671e-6 0.0002238757006125525 -0.001207735505886376
1.4529367717841524e-6 0.0001906112302094698 -0.0011389857390895486
-2.4232347186625702e-6 0.0001792121329344809 -0.0010622777044773102
-6.532860879815417e-6 0.0001942663948284462 -0.0009759414824657142
-1.0618759006320033e-5 0.00024140944879036397 -0.00087792583508417
-1.4417873899219556e-5 0.0003240568330511451 -0.0007669876795262098
-1.7680962628219277e-5 0.00043835357064381236 -0.0006445300532504916
-2.018977284024004e-5 0.000571870943531394 -0.0005150767392478883
-2.1771005776827224e-5 0.0007054671877995133 -0.00038559469976462424
-2.2306650862446986e-5 0.0008168123313225805 -0.0002642114122863859
-2.1740446754847653e-5 0.0008844184922054409 -0.00015874780365265906
-1.058942416420905e-5 0.00045238976599648595 -5.545424937736243e-5

CELL_DATA 50

VECTORS liftinglineloading               float
0.12896567583084106 0.09869562834501266 0.046022526919841766
0.1904447078704834 0.16593150794506073 0.0773751363158226
-0.06857150793075562 0.046430204063653946 0.021650759503245354
0.13262571394443512 0.0644756332039833 0.03006548248231411
0.13609185814857483 0.1110251247882843 0.0517718680202961
-0.5226148366928101 0.3619905412197113 0.16879896819591522
-1.6554422378540037 0.7916483879089355 0.3691517114639282
-3.2626440525054936 1.2976568937301636 0.605107307434082
-5.154655933380127 1.8085458278656006 0.8433387279510498
-7.291102409362793 2.3399415016174316 1.091132640838623
-9.412870407104492 2.8140716552734375 1.3122230768203735
-11.299461364746094 3.2002933025360107 1.492321252822876
-12.545490264892578 3.4044523239135747 1.5875221490859985
-13.54119396209717 3.5557169914245605 1.6580580472946167
-14.29826831817627 3.6110906600952144 1.6838792562484741
-14.866784095764162 3.6170291900634766 1.6866483688354492
-15.019243240356447 3.501320600509644 1.6326925754547117
-15.013423919677734 3.413610696792602 1.5917927026748657
-15.722035408020021 3.40791654586792 1.5891375541687012
-15.65524959564209 3.281893253326416 1.5303720235824585
-15.651660919189451 3.2022788524627686 1.493247151374817
-15.624883651733398 3.0572621822357178 1.4256247282028198
-15.973177909851072 3.121551990509033 1.4556035995483398
-15.734593391418457 2.9945011138916016 1.396358847618103
-16.594970703125 3.013483762741089 1.4052104949951172
-17.850492477416992 2.940446138381958 1.3711525201797485
-18.375207901000977 2.8937301635742188 1.3493684530258179
-19.94889259338379 3.0650343894958496 1.4292489290237427
-21.366365432739258 3.0780179500579834 1.4353033304214478
-22.4645938873291 3.028836250305176 1.4123696088790894
-23.462644577026367 2.885769844055176 1.3456566333770752
-24.247962951660156 2.702091693878174 1.260006070137024
-26.87988662719727 2.6475112438201904 1.2345547676086426
-26.994319915771484 2.382218837738037 1.1108468770980835
-26.86354637145996 2.2698724269866943 1.058458924293518
-26.469423294067383 2.1203248500823975 0.9887236952781677
-25.854562759399414 1.9183207750320435 0.8945276737213135
-24.725807189941406 1.7936782836914062 0.8364059329032898
-23.610641479492188 1.7057396173477173 0.7953994274139404
-22.48044776916504 1.557930588722229 0.7264750003814697
-21.383237838745117 1.476096510887146 0.6883150935173035
-19.232330322265625 1.4289300441741943 0.6663210391998291
-16.073657989501953 1.4926564693450928 0.6960371732711792
-13.465555191040039 1.4589135646820068 0.6803025603294373
-10.864357948303223 1.6556351184844973 0.7720353603363037
-9.210591316223145 1.705381989479065 0.7952326536178589
-7.308716773986816 1.6811157464981077 0.7839171886444092
-5.618190765380859 1.6663538217544556 0.7770335674285889
-3.723198890686035 1.6268894672393799 0.7586309909820557
-2.0187735557556152 1.578565001487732 0.7360969185829163