# vtk DataFile Version 4.0
 
ASCII
DATASET UNSTRUCTURED_GRID
POINTS 51 float
0.0032294827979058027 0.005387269891798496 -0.005382002331316471
0.0029985597357153893 0.009468168020248413 -0.00606054300442338
0.0027879877015948296 0.013412468135356903 -0.00707621406763792
0.0024406220763921738 0.017263127490878105 -0.008185386657714844
0.001979583641514182 0.021023200824856758 -0.00937074888497591
0.0015499991131946445 0.024727899581193924 -0.010432597249746323
0.0013237936655059457 0.02843659371137619 -0.011034234426915646
0.00136558769736439 0.03211012855172157 -0.011397718451917171
0.0016000348841771481 0.035687822848558426 -0.011867174878716469
0.0019152839668095112 0.03921514004468918 -0.012184791266918182
0.002229772275313735 0.042674023658037186 -0.012452948838472366
0.002495136111974716 0.04604075849056244 -0.012806162238121031
0.002689530374482274 0.04932885989546776 -0.013167749159038069
0.00281157111749053 0.05255291610956192 -0.013455032370984553
0.0028735389932990074 0.055710978806018836 -0.013679012656211855
0.00289417477324605 0.058792661875486374 -0.013898585923016073
0.0028929314576089382 0.061788320541381836 -0.014168495312333107
0.0028857397846877575 0.06469529867172241 -0.014503784477710724
0.002882807282730937 0.0675191581249237 -0.014872896485030653
0.002889164024963975 0.07026825845241547 -0.01522843912243843
0.002906039822846651 0.07294803112745285 -0.015539617277681826
0.0029321631882339716 0.07555832713842392 -0.015807252377271652
0.002964876824989915 0.07809537649154663 -0.0160527341067791
0.003001011675223708 0.08055485039949417 -0.016300570219755173
0.003037509974092245 0.08293351531028748 -0.016569187864661217
0.0030718371272087097 0.08522943407297134 -0.016869526356458664
0.003102224553003907 0.08744191378355026 -0.01720551960170269
0.0031277663074433804 0.08957135677337646 -0.01757487654685974
0.0031484069768339396 0.0916190817952156 -0.017970090731978416
0.0031648471485823393 0.09358712285757065 -0.018379684537649155
0.0031782679725438356 0.09547774493694305 -0.01879078336060047
0.0031899327877908945 0.09729286283254623 -0.01919257454574108
0.0032009012065827847 0.09903361648321152 -0.019578512758016586
0.003211877541616559 0.1007002666592598 -0.019947150722146034
0.003223159583285451 0.10229220241308212 -0.020301973447203636
0.003234656061977148 0.10380807518959047 -0.020650578662753105
0.0032459525391459465 0.10524605214595793 -0.021003421396017075
0.0032564047724008556 0.1066041886806488 -0.021371547132730484
0.0032652423251420264 0.10788138955831528 -0.021761076524853706
0.003271671943366527 0.1090782582759857 -0.022168658673763275
0.0032749734818935394 0.11019712686538698 -0.02258104830980301
0.0032745779026299715 0.11124165356159209 -0.022977495566010475
0.0032701271120458846 0.11221625655889511 -0.023332921788096428
0.0032615121454000473 0.11312630027532578 -0.023616958409547806
0.0032488894648849964 0.11397827416658401 -0.02379271388053894
0.003232676535844803 0.11477881669998169 -0.023822663351893425
0.0032135276123881336 0.1155329868197441 -0.023677993565797806
0.003192296950146556 0.11624282598495483 -0.02334723062813282
0.0031699857208877806 0.11690632998943329 -0.02284168265759945
0.003147683572024107 0.11751726269721983 -0.022196682170033455
0.0031265048310160637 0.11806570738554001 -0.021468574181199074

CELLS 50 150
2 0 1
2 1 2
2 2 3
2 3 4
2 4 5
2 5 6
2 6 7
2 7 8
2 8 9
2 9 10
2 10 11
2 11 12
2 12 13
2 13 14
2 14 15
2 15 16
2 16 17
2 17 18
2 18 19
2 19 20
2 20 21
2 21 22
2 22 23
2 23 24
2 24 25
2 25 26
2 26 27
2 27 28
2 28 29
2 29 30
2 30 31
2 31 32
2 32 33
2 33 34
2 34 35
2 35 36
2 36 37
2 37 38
2 38 39
2 39 40
2 40 41
2 41 42
2 42 43
2 43 44
2 44 45
2 45 46
2 46 47
2 47 48
2 48 49
2 49 50

CELL_TYPES 50
4
4
4
4
4
4
4
4
4
4
4
4
4
4
4
4
4
4
4
4
4
4
4
4
4
4
4
4
4
4
4
4
4
4
4
4
4
4
4
4
4
4
4
4
4
4
4
4
4
4

POINT_DATA 51

SCALARS zone float
LOOKUP_TABLE default
1.0
1.0
1.0
1.0
1.0
1.0
1.0
1.0
1.0
1.0
1.0
1.0
1.0
1.0
1.0
1.0
1.0
1.0
1.0
1.0
1.0
1.0
1.0
1.0
1.0
1.0
1.0
1.0
1.0
1.0
1.0
1.0
1.0
1.0
1.0
1.0
1.0
1.0
1.0
1.0
1.0
1.0
1.0
1.0
1.0
1.0
1.0
1.0
1.0
1.0
1.0

VECTORS normals float
-0.00011546154564712197 0.0020404490642249584 -0.0003392703365534544
-0.00022074757725931704 0.004012599121779203 -0.0008471058099530638
-0.0002789688587654382 0.0038974802009761333 -0.0010624215938150883
-0.00040420211735181516 0.0038053665775805707 -0.001147267408668995
-0.00044531151070259506 0.0037323860451579094 -0.0011236052960157394
-0.0003278949297964573 0.0037066964432597156 -0.0008317430038005114
-9.220571519108489e-5 0.0036911137867718935 -0.000482560892123729
0.00013812060933560133 0.003625614568591118 -0.00041646996396593744
0.0002748481638263911 0.0035525057464838032 -0.00039353626198135316
0.0003148686664644629 0.003493099939078093 -0.00029288718360476196
0.00028992604347877204 0.003412808757275343 -0.00031068568932823837
0.00022987906413618475 0.003327419050037861 -0.0003574001893866807
0.00015821750275790691 0.0032560788094997406 -0.00032443489180877805
9.200429485645145e-5 0.0031910578254610296 -0.0002556313993409276
4.130187880946323e-5 0.0031198745127767324 -0.0002217765577370301
9.696207598608453e-6 0.003038672497496009 -0.0002447415899951011
-4.217552486807108e-6 0.002951317699626088 -0.0003025996556971222
-5.062076070316834e-6 0.002865418791770935 -0.0003522004990372807
1.7121039945777738e-6 0.0027864803560078144 -0.00036232706042937934
1.1616368283284828e-5 0.0027144351042807102 -0.0003333604836370796
2.149965257558506e-5 0.0026450324803590775 -0.00028940668562427163
2.9418395570246506e-5 0.0025736717507243156 -0.00025655815261416137
3.442417073529214e-5 0.0024982644245028496 -0.00024665912496857345
3.63165709131863e-5 0.0024190719705075026 -0.0002582271408755332
3.5412773286225274e-5 0.002337290206924081 -0.00028447818476706743
3.2357384043280035e-5 0.002254197373986244 -0.0003181655774824321
2.7964591936324723e-5 0.002170959720388055 -0.00035267468774691224
2.309120463905856e-5 0.0020885856356471777 -0.0003822854196187109
1.854042238846887e-5 0.002007885370403528 -0.000402403820771724
1.493051149736857e-5 0.0019293321529403329 -0.0004103465180378408
1.2542826880235225e-5 0.0018528671935200691 -0.0004064452077727765
1.1316546078887768e-5 0.0017779326299205425 -0.00039386507705785334
1.0972400559694506e-5 0.0017037028446793556 -0.0003772878262680024
1.1129222002637107e-5 0.0016292931977659464 -0.000361730286385864
1.1389166502340231e-5 0.0015539064770564437 -0.0003517139994073659
1.1396474292268977e-5 0.001476928242482245 -0.0003507241781335324
1.0874458894249983e-5 0.0013980543008074164 -0.00036048481706529856
9.644884812587406e-6 0.0013176670763641596 -0.00037882765172980726
7.633578206878155e-6 0.0012370357289910316 -0.00039855550858192146
4.865619757765671e-6 0.0011578674893826246 -0.0004099856887478382
1.4529367717841524e-6 0.0010816962458193302 -0.0004044187371619045
-2.4232347186625702e-6 0.001009565545246005 -0.0003759366227313876
-6.532860879815417e-6 0.0009423232986591756 -0.0003197311016265303
-1.0618759006320033e-5 0.0008810107829049231 -0.00022989619174040854
-1.4417873899219556e-5 0.0008262592018581927 -0.00010285238386131822
-1.7680962628219277e-5 0.0007773562101647258 5.736028469982557e-5
-2.018977284024004e-5 0.0007320049917325377 0.00023771642008796334
-2.1771005776827224e-5 0.000686668383423239 0.00041815513395704334
-2.2306650862446986e-5 0.000637219927739352 0.0005752745200879872
-2.1740446754847653e-5 0.0005796888726763427 0.0006865549948997796
-1.058942416420905e-5 0.00027421966660767794 0.0003640539071056992

CELL_DATA 50

VECTORS liftinglineloading               float
0.13985469937324524 0.010065882466733456 0.11505357176065444
0.20976315438747406 0.01724180206656456 0.19707471132278442
-0.07048427313566208 0.004297203850001097 0.04911726713180542
0.13121245801448822 0.006245019380003214 0.07138089835643768
0.13141018152236938 0.01109774224460125 0.1268477737903595
-0.5741684436798096 0.03682338446378708 0.4208932220935822
-1.7661467790603638 0.07949747890233994 0.9086603522300721
-3.4394259452819824 0.1286574751138687 1.4705616235733032
-5.384249210357666 0.17804189026355743 2.0350282192230225
-7.58879852294922 0.2295413315296173 2.623669385910034
-9.757680892944336 0.2752753496170044 3.146411657333374
-11.662726402282715 0.31162455677986145 3.561884880065918
-12.924116134643555 0.33068397641181946 3.7797353267669678
-13.911854743957521 0.34499040246009827 3.943258285522461
-14.673851013183596 0.3506688177585602 4.008162975311279
-15.237009048461914 0.35098525881767273 4.01177978515625
-15.379316329956055 0.3404536843299866 3.891403436660767
-15.35603904724121 0.33142298460006714 3.7881820201873775
-16.044973373413086 0.33044755458831787 3.777032852172852
-15.941073417663572 0.3177317678928375 3.631690502166748
-15.899859428405762 0.3095698654651642 3.5383999347686763
-15.808760643005373 0.29492926597595215 3.3710567951202397
-16.12104606628418 0.3005349636077881 3.4351303577423096
-15.855479240417482 0.28807201981544495 3.2926781177520756
-16.691198348999023 0.28958815336227417 3.310007810592651
-17.927528381347656 0.2824253439903259 3.2281363010406494
-18.461034774780273 0.2779870927333832 3.1774072647094727
-20.035493850708008 0.294182151556015 3.3625173568725586
-21.473833084106445 0.2953648269176483 3.3760354518890385
-22.59032440185547 0.2905230224132538 3.3206934928894043
-23.5902099609375 0.27675217390060425 3.1632919311523438
-24.388174057006836 0.2588863670825958 2.9590847492218018
-24.961912155151367 0.253362774848938 2.8959498405456543
-25.373292922973633 0.23116526007652285 2.642230987548828
-25.400951385498047 0.22046367824077603 2.519911527633667
-25.186908721923828 0.20600953698158267 2.3546998500823975
-24.730751037597656 0.18557526171207428 2.1211349964141846
-23.798852920532227 0.17329296469688416 1.980747580528259
-22.805387496948242 0.1644711196422577 1.8799134492874146
-21.793794631958008 0.1504697948694229 1.7198776006698606
-20.78784942626953 0.1421712338924408 1.625024676322937
-18.735427856445312 0.13721175491809845 1.5683375597000122
-15.672553062438965 0.1426326334476471 1.6302984952926634
-13.150808334350586 0.13923390209674835 1.591450810432434
-10.623933792114258 0.15758486092090607 1.8012031316757202
-9.010026931762695 0.16240330040454865 1.8562781810760496
-7.1559648513793945 0.1601146161556244 1.8301184177398682
-5.505709171295166 0.15882658958435059 1.8153961896896362
-3.651799440383911 0.15514610707759857 1.7733280658721924
-1.9818905591964722 0.1506209820508957 1.721605658531189