# vtk DataFile Version 4.0
 
ASCII
DATASET UNSTRUCTURED_GRID
POINTS 51 float
0.0032294827979058027 -0.007498689461499453 -0.0013260033447295427
0.0029985597357153893 -0.010395224206149578 -0.004279684275388718
0.0027879877015948296 -0.01348957046866417 -0.0069281007163226604
0.0024406220763921738 -0.016606800258159637 -0.009446182288229465
0.001979583641514182 -0.01973448134958744 -0.011846357025206089
0.0015499991131946445 -0.02272922359406948 -0.014272018335759641
0.0013237936655059457 -0.025349276140332222 -0.01696491800248623
0.00136558769736439 -0.027754077687859535 -0.019765613600611687
0.0016000348841771481 -0.030190715566277504 -0.022427022457122803
0.0019152839668095112 -0.032474078238010406 -0.025134252384305
0.002229772275313735 -0.03467767313122749 -0.02781379595398903
0.002495136111974716 -0.036898087710142136 -0.030369067564606667
0.002689530374482274 -0.039080262184143066 -0.03285512700676918
0.00281157111749053 -0.041164830327034 -0.03533133864402771
0.0028735389932990074 -0.043159693479537964 -0.03778980299830437
0.00289417477324605 -0.04510714113712311 -0.04018823057413101
0.0028929314576089382 -0.0470464788377285 -0.04248731583356857
0.0028857397846877575 -0.048988502472639084 -0.04467625543475151
0.002882807282730937 -0.05091056227684021 -0.04677771404385567
0.002889164024963975 -0.052778623998165124 -0.048825714737176895
0.002906039822846651 -0.054570581763982766 -0.050842370837926865
0.0029321631882339716 -0.05628701671957969 -0.05282709002494812
0.002964876824989915 -0.05794329568743706 -0.05476451665163041
0.003001011675223708 -0.05955701321363449 -0.05663704872131347
0.003037509974092245 -0.06114139407873153 -0.05843146517872811
0.0030718371272087097 -0.06270430237054825 -0.06013990193605423
0.003102224553003907 -0.06424855440855026 -0.06175953894853592
0.0031277663074433804 -0.06577251106500626 -0.0632920190691948
0.0031484069768339396 -0.06727078557014465 -0.06474273651838303
0.0031648471485823393 -0.06873512268066406 -0.06611993163824081
0.0031782679725438356 -0.0701562911272049 -0.06743284314870834
0.0031899327877908945 -0.07152652740478516 -0.06868923455476761
0.0032009012065827847 -0.07284112274646759 -0.06989381462335587
0.003211877541616559 -0.07409904897212982 -0.07104761153459549
0.003223159583285451 -0.07530280202627182 -0.07214812934398651
0.003234656061977148 -0.07645782828330994 -0.07318991422653198
0.0032459525391459465 -0.07757165282964706 -0.0741654559969902
0.0032564047724008556 -0.07865219563245773 -0.07506681978702545
0.0032652423251420264 -0.07970385253429413 -0.07588961720466614
0.003271671943366527 -0.08072421699762344 -0.07663625478744507
0.0032749734818935394 -0.0817037895321846 -0.07731623947620392
0.0032745779026299715 -0.08262765407562256 -0.07794447243213654
0.0032701271120458846 -0.08347781002521515 -0.07853896170854568
0.0032615121454000473 -0.08423245698213577 -0.07912150770425797
0.0032488894648849964 -0.08486510813236237 -0.07971859723329544
0.003232676535844803 -0.08534880727529526 -0.08035718649625778
0.0032135276123881336 -0.08566287904977798 -0.08105794340372086
0.003192296950146556 -0.08579907566308975 -0.08182912319898605
0.0031699857208877806 -0.0857655256986618 -0.08266260474920273
0.003147683572024107 -0.08558759093284607 -0.08353301137685776
0.0031265048310160637 -0.08530573546886444 -0.08439989387989044

CELLS 50 150
2 0 1
2 1 2
2 2 3
2 3 4
2 4 5
2 5 6
2 6 7
2 7 8
2 8 9
2 9 10
2 10 11
2 11 12
2 12 13
2 13 14
2 14 15
2 15 16
2 16 17
2 17 18
2 18 19
2 19 20
2 20 21
2 21 22
2 22 23
2 23 24
2 24 25
2 25 26
2 26 27
2 27 28
2 28 29
2 29 30
2 30 31
2 31 32
2 32 33
2 33 34
2 34 35
2 35 36
2 36 37
2 37 38
2 38 39
2 39 40
2 40 41
2 41 42
2 42 43
2 43 44
2 44 45
2 45 46
2 46 47
2 47 48
2 48 49
2 49 50

CELL_TYPES 50
4
4
4
4
4
4
4
4
4
4
4
4
4
4
4
4
4
4
4
4
4
4
4
4
4
4
4
4
4
4
4
4
4
4
4
4
4
4
4
4
4
4
4
4
4
4
4
4
4
4

POINT_DATA 51

SCALARS zone float
LOOKUP_TABLE default
1.0
1.0
1.0
1.0
1.0
1.0
1.0
1.0
1.0
1.0
1.0
1.0
1.0
1.0
1.0
1.0
1.0
1.0
1.0
1.0
1.0
1.0
1.0
1.0
1.0
1.0
1.0
1.0
1.0
1.0
1.0
1.0
1.0
1.0
1.0
1.0
1.0
1.0
1.0
1.0
1.0
1.0
1.0
1.0
1.0
1.0
1.0
1.0
1.0
1.0
1.0

VECTORS normals float
-0.00011546154564712197 -0.0014482674887403846 -0.0014768404653295875
-0.00022074757725931704 -0.002995440736413002 -0.0028010488022118807
-0.0002789688587654382 -0.0031057875603437424 -0.0025832487735897303
-0.00040420211735181516 -0.0031224549748003483 -0.002459128387272358
-0.00044531151070259506 -0.0030612123664468527 -0.0024129182565957308
-0.0003278949297964573 -0.0028073976282030344 -0.002559279790148139
-9.220571519108489e-5 -0.0025124268140643835 -0.002746797865256667
0.00013812060933560133 -0.0024207194801419973 -0.002731052227318287
0.0002748481638263911 -0.0023599995765835047 -0.002684319159016013
0.0003148686664644629 -0.0022434790153056383 -0.002693386748433113
0.00028992604347877204 -0.0022120054345577955 -0.0026174073573201895
0.00022987906413618475 -0.002201294293627143 -0.0025206657592207193
0.00015821750275790691 -0.002133371541276574 -0.002481135306879878
9.200429485645145e-5 -0.0020397165790200233 -0.002467337530106306
4.130187880946323e-5 -0.001971155172213912 -0.0024284457322210073
9.696207598608453e-6 -0.0019433913985267284 -0.0023487566504627466
-4.217552486807108e-6 -0.001940681366249919 -0.0022440138272941113
-5.062076070316834e-6 -0.0019320424180477858 -0.002145199803635478
1.7121039945777738e-6 -0.0018950604135170581 -0.0020747289527207613
1.1616368283284828e-5 -0.0018300089286640286 -0.002032327465713024
2.149965257558506e-5 -0.0017541964771226048 -0.0020006869453936815
2.9418395570246506e-5 -0.001686357660219073 -0.0019610729068517685
3.442417073529214e-5 -0.0016349969664588568 -0.0019049805123358965
3.63165709131863e-5 -0.0015990498941391706 -0.0018334746127948163
3.5412773286225274e-5 -0.0015736455097794533 -0.0017514261417090893
3.2357384043280035e-5 -0.0015535805141553283 -0.0016640381654724479
2.7964591936324723e-5 -0.0015341055113822222 -0.0015760601963847876
2.309120463905856e-5 -0.0015111134853214025 -0.0014915993670001626
1.854042238846887e-5 -0.0014813056914135814 -0.0014139541890472174
1.493051149736857e-5 -0.0014427556889131665 -0.0013450513361021876
1.2542826880235225e-5 -0.0013957014307379723 -0.0012846526224166155
1.1316546078887768e-5 -0.0013424156932160258 -0.0012304853880777955
1.0972400559694506e-5 -0.0012862598523497581 -0.0011791882570832968
1.1129222002637107e-5 -0.0012308362638577819 -0.0011271588737145066
1.1389166502340231e-5 -0.0011793914018198848 -0.0010711507638916373
1.1396474292268977e-5 -0.0011344276135787368 -0.001008661580272019
1.0874458894249983e-5 -0.0010971828596666455 -0.0009384534205310047
9.644884812587406e-6 -0.0010661003179848194 -0.0008620831067673862
7.633578206878155e-6 -0.0010360120795667171 -0.0007847183151170611
4.865619757765671e-6 -0.0009999661706387997 -0.000713311368599534
1.4529367717841524e-6 -0.0009517159196548164 -0.0006541086477227509
-2.4232347186625702e-6 -0.0008870122837834061 -0.0006113593117333949
-6.532860879815417e-6 -0.0008024028502404691 -0.0005885158316232264
-1.0618759006320033e-5 -0.0006936469580978155 -0.0005898187519051135
-1.4417873899219556e-5 -0.0005581745645031333 -0.0006178382318466902
-1.7680962628219277e-5 -0.000398886390030384 -0.000669673434458673
-2.018977284024004e-5 -0.00022513493604492396 -0.0007359719602391124
-2.1771005776827224e-5 -5.132417936692946e-5 -0.0008023297414183617
-2.2306650862446986e-5 0.00010574292537057772 -0.0008519439143128694
-2.1740446754847653e-5 0.00022989703575149176 -0.0008686450892128049
-1.058942416420905e-5 0.00014092956553213298 -0.00043344034929759806

CELL_DATA 50

VECTORS liftinglineloading               float
0.16914550960063934 0.10219684243202211 -0.08575332909822464
0.25703418254852295 0.1780993491411209 -0.1494431048631668
-0.12954135239124298 0.06009983271360397 -0.050429750233888626
0.09055878967046738 0.04938836023211479 -0.04144175350666046
0.25562217831611633 0.059789832681417465 -0.050169628113508224
-0.3775501251220703 0.2664826214313507 -0.22360546886920932
-1.5259819030761719 0.6437076926231384 -0.5401349067687988
-3.173225164413452 1.0949056148529053 -0.9187349081039429
-5.124510765075684 1.5425605773925781 -1.29436194896698
-7.29644250869751 1.9988529682159424 -1.677236795425415
-9.452811241149902 2.4030516147613525 -2.016399621963501
-11.365792274475098 2.7309727668762207 -2.291558265686035
-12.617383003234863 2.900242328643799 -2.4335923194885254
-13.60967254638672 3.0233154296875 -2.536862850189209
-14.358349800109862 3.0651118755340576 -2.571934223175049
-15.038877487182617 3.0754973888397217 -2.580648899078369
-15.153368949890137 2.9731879234313965 -2.4948010444641113
-15.090219497680664 2.891446113586426 -2.426211357116699
-15.832457542419435 2.887483835220337 -2.422886610031128
-15.811497688293455 2.782670497894287 -2.334937810897827
-15.87211036682129 2.7185676097869873 -2.28114914894104
-15.890292167663574 2.597360372543335 -2.1794440746307373
-16.31510353088379 2.6521103382110596 -2.2253847122192383
-16.159021377563477 2.5478878021240234 -2.1379318237304688
-17.07992935180664 2.5625128746032715 -2.1502034664154053
-18.355960845947266 2.4993340969085693 -2.0971903800964355
-18.93341827392578 2.461512804031372 -2.0654544830322266
-20.448068618774414 2.594574213027954 -2.1771063804626465
-21.84070587158203 2.6006412506103516 -2.182197093963623
-22.874208450317383 2.554004430770874 -2.143064260482788
-23.74435043334961 2.4312822818756104 -2.040088176727295
-24.412708282470703 2.2730493545532227 -1.9073147773742674
-24.869962692260742 2.2245442867279053 -1.8666143417358396
-25.10601234436035 2.0352373123168945 -1.7077667713165285
-25.046703338623047 1.9440499544143677 -1.6312516927719116
-24.74593162536621 1.8204498291015623 -1.527538776397705
-24.216876983642578 1.6401289701461794 -1.3762316703796387
-23.265148162841797 1.5333319902420044 -1.2866182327270508
-22.234193801879883 1.455541729927063 -1.2213445901870728
-21.210100173950195 1.3362406492233276 -1.1212389469146729
-20.189205169677734 1.2608391046524048 -1.057969570159912
-18.176652908325195 1.21369206905365 -1.0184086561203003
-15.151909828186035 1.2521007061004639 -1.0506372451782227
-12.68552017211914 1.2185966968536377 -1.022524118423462
-10.21997356414795 1.3680338859558105 -1.1479166746139526
-8.615205764770508 1.407991886138916 -1.1814454793930054
-6.711976051330566 1.377329707145691 -1.155716896057129
-5.123101711273193 1.36514413356781 -1.1454919576644897
-3.367540121078491 1.3306655883789062 -1.116560935974121
-1.8041486740112305 1.2886593341827393 -1.0813134908676147