# vtk DataFile Version 4.0
 
ASCII
DATASET UNSTRUCTURED_GRID
POINTS 51 float
0.0032294827979058027 -0.005835841875523329 0.0048919906839728355
0.0029985597357153893 -0.009960349649190903 0.00521227577701211
0.0027879877015948296 -0.013978161849081516 0.0058803134597837925
0.0024406220763921738 -0.01791083998978138 0.006649657618254423
0.001979583641514182 -0.021759916096925735 0.0075027975253760815
0.0015499991131946445 -0.025543063879013065 0.008237719535827637
0.0013237936655059457 -0.029290081933140755 0.00851383339613676
0.00136558769736439 -0.03298131749033928 0.008555765263736248
0.0016000348841771481 -0.03658631443977356 0.008711617439985275
0.0019152839668095112 -0.040127888321876526 0.008720600046217442
0.002229772275313735 -0.04359698295593262 0.008686275221407413
0.002495136111974716 -0.04698168858885765 0.00874471478164196
0.002689530374482274 -0.05028879642486572 0.008818348869681358
0.00281157111749053 -0.05352561920881272 0.008823543787002563
0.0028735389932990074 -0.056691184639930725 0.008771427907049656
0.00289417477324605 -0.0597802810370922 0.008721578866243362
0.0028929314576089382 -0.06278806179761887 0.00872937310487032
0.0028857397846877575 -0.06571320444345474 0.008810026571154594
0.002882807282730937 -0.06855848431587219 0.008931618183851242
0.002889164024963975 -0.07132811099290848 0.00904620811343193
0.002906039822846651 -0.07402480393648148 0.009122644551098347
0.0029321631882339716 -0.07664849609136581 0.009161759167909622
0.002964876824989915 -0.07919728755950928 0.00918518751859665
0.003001011675223708 -0.08166901022195816 0.009217724204063416
0.003037509974092245 -0.08406203240156174 0.009278004989027977
0.0030718371272087097 -0.08637538552284241 0.009377098642289639
0.003102224553003907 -0.08860872685909271 0.009518981911242008
0.0031277663074433804 -0.09076225757598877 0.009701340459287167
0.0031484069768339396 -0.0928366407752037 0.009916579350829124
0.0031648471485823393 -0.0948328897356987 0.010153088718652725
0.0031782679725438356 -0.09675215184688568 0.010397844016551971
0.0031899327877908945 -0.09859537333250046 0.010639909654855728
0.0032009012065827847 -0.10036314278841019 0.010872662998735905
0.003211877541616559 -0.1020555794239044 0.011094639077782631
0.003223159583285451 -0.10367237776517868 0.01130936574190855
0.003234656061977148 -0.10521287471055984 0.01152452640235424
0.0032459525391459465 -0.1066761314868927 0.011750699952244759
0.0032564047724008556 -0.10806117951869965 0.011999055743217468
0.0032652423251420264 -0.1093674749135971 0.012275787070393562
0.003271671943366527 -0.11059530824422836 0.01257750391960144
0.0032749734818935394 -0.11174585670232773 0.012890809215605259
0.0032745779026299715 -0.11282096058130263 0.013194710947573187
0.0032701271120458846 -0.11382284015417099 0.013463841751217842
0.0032615121454000473 -0.11475417017936707 0.013667481951415539
0.0032488894648849964 -0.11561822891235352 0.01376831438392401
0.003232676535844803 -0.11641833186149597 0.013728378340601921
0.0032135276123881336 -0.11715702712535858 0.01351852808147669
0.003192296950146556 -0.11783532798290253 0.013127157464623451
0.0031699857208877806 -0.11845224350690842 0.012565705925226212
0.003147683572024107 -0.11900464445352554 0.011869912035763264
0.0031265048310160637 -0.11948753893375398 0.011096774600446224

CELLS 50 150
2 0 1
2 1 2
2 2 3
2 3 4
2 4 5
2 5 6
2 6 7
2 7 8
2 8 9
2 9 10
2 10 11
2 11 12
2 12 13
2 13 14
2 14 15
2 15 16
2 16 17
2 17 18
2 18 19
2 19 20
2 20 21
2 21 22
2 22 23
2 23 24
2 24 25
2 25 26
2 26 27
2 27 28
2 28 29
2 29 30
2 30 31
2 31 32
2 32 33
2 33 34
2 34 35
2 35 36
2 36 37
2 37 38
2 38 39
2 39 40
2 40 41
2 41 42
2 42 43
2 43 44
2 44 45
2 45 46
2 46 47
2 47 48
2 48 49
2 49 50

CELL_TYPES 50
4
4
4
4
4
4
4
4
4
4
4
4
4
4
4
4
4
4
4
4
4
4
4
4
4
4
4
4
4
4
4
4
4
4
4
4
4
4
4
4
4
4
4
4
4
4
4
4
4
4

POINT_DATA 51

SCALARS zone float
LOOKUP_TABLE default
1.0
1.0
1.0
1.0
1.0
1.0
1.0
1.0
1.0
1.0
1.0
1.0
1.0
1.0
1.0
1.0
1.0
1.0
1.0
1.0
1.0
1.0
1.0
1.0
1.0
1.0
1.0
1.0
1.0
1.0
1.0
1.0
1.0
1.0
1.0
1.0
1.0
1.0
1.0
1.0
1.0
1.0
1.0
1.0
1.0
1.0
1.0
1.0
1.0
1.0
1.0

VECTORS normals float
-0.00011546154564712197 -0.002062253886833787 0.00016014247376006097
-0.00022074757725931704 -0.00407115975394845 0.0004941612714901567
-0.0002789688587654382 -0.0039752451702952385 0.0007186909206211567
-0.00040420211735181516 -0.00389087712392211 0.0008112420910038055
-0.00044531151070259506 -0.0038161119446158405 0.000794030784163624
-0.0003278949297964573 -0.0037650826852768664 0.0005055180517956614
-9.220571519108489e-5 -0.003719126107171178 0.00015902284940239042
0.00013812060933560133 -0.003648115787655115 9.889203647617251e-5
0.0002748481638263911 -0.003573286347091198 8.24174567242153e-5
0.0003148686664644629 -0.0035053344909101725 -1.267107109015342e-5
0.00028992604347877204 -0.0034269001334905624 1.2057545063726138e-5
0.00022987906413618475 -0.003345906501635909 6.603651854675263e-5
0.00015821750275790691 -0.003271964844316244 3.941436079912819e-5
9.200429485645145e-5 -0.0032011945731937885 -2.3460368538508192e-5
4.130187880946323e-5 -0.0031273316126316786 -5.098235851619393e-5
9.696207598608453e-6 -0.0030484399758279324 -2.102748658217024e-5
-4.217552486807108e-6 -0.002966460306197405 4.4223907025298104e-5
-5.062076070316834e-6 -0.002885211259126663 0.00010112255404237656
1.7121039945777738e-6 -0.002807455835863948 0.0001180905383080244
1.1616368283284828e-5 -0.002733160275965929 9.551334369461983e-5
2.149965257558506e-5 -0.0026601909194141626 5.7775632740231224e-5
2.9418395570246506e-5 -0.0025862387847155333 3.127158561255783e-5
3.442417073529214e-5 -0.002510255668312311 2.7982430765405297e-5
3.63165709131863e-5 -0.0024323726538568735 4.640850966097787e-5
3.5412773286225274e-5 -0.00235318997874856 7.968739373609424e-5
3.2357384043280035e-5 -0.002273349557071924 0.00012048862117808312
2.7964591936324723e-5 -0.002193436259403825 0.00016212105401791632
2.309120463905856e-5 -0.002113956492394209 0.00019879845785908404
1.854042238846887e-5 -0.002035316778346896 0.0002258738095406443
1.493051149736857e-5 -0.0019577546045184135 0.0002406326384516433
1.2542826880235225e-5 -0.001881240517832339 0.0002434105408610776
1.1316546078887768e-5 -0.0018054946558549998 0.0002374092728132382
1.0972400559694506e-5 -0.0017301024636253715 0.00022736465325579047
1.1129222002637107e-5 -0.001654620049521327 0.00021835153165739027
1.1389166502340231e-5 -0.0015786472940817475 0.00021494374959729612
1.1396474292268977e-5 -0.0015018756967037916 0.00022066679957788438
1.0874458894249983e-5 -0.0014241526369005442 0.00023726459767203775
9.644884812587406e-6 -0.001345669967122376 0.0002625438501127064
7.633578206878155e-6 -0.0012670648284256458 0.00028922411729581654
4.865619757765671e-6 -0.001189194037579 0.00030751078156754375
1.4529367717841524e-6 -0.00111282744910568 0.0003086037468165159
-2.4232347186625702e-6 -0.001038488931953907 0.00028651661705225706
-6.532860879815417e-6 -0.0009666038677096367 0.0002363855455769226
-1.0618759006320033e-5 -0.0008976950775831937 0.0001522362290415913
-1.4417873899219556e-5 -0.0008320792112499475 3.0447763492702506e-5
-1.7680962628219277e-5 -0.0007693988154642284 -0.00012489306391216815
-2.018977284024004e-5 -0.000708501145709306 -0.00030061029247008264
-2.1771005776827224e-5 -0.0006476108101196587 -0.0004764110199175775
-2.2306650862446986e-5 -0.0005846566637046635 -0.0006286227726377547
-2.1740446754847653e-5 -0.0005176457925699651 -0.0007344656623899937
-1.058942416420905e-5 -0.00024144680355675516 -0.0003865683975163847

CELL_DATA 50

VECTORS liftinglineloading               float
0.12540210783481598 -3.4832268545164616e-16 -0.1069696620106697
0.1828639954328537 -5.788892623892234e-16 -0.177776500582695
-0.06930486112833023 -1.7509374071229285e-16 -0.05377117171883583
0.13632836937904358 -2.354288107526129e-16 -0.0723000317811966
0.14047038555145264 -3.984034819882771e-16 -0.12234944105148315
-0.4989109933376312 -1.2752658062108809e-15 -0.3916332423686981
-1.6020156145095825 -2.796708186014068e-15 -0.8588672280311584
-3.1730637550354004 -4.613235351179617e-15 -1.4167213439941406
-5.036057949066162 -6.451244754195192e-15 -1.9811729192733765
-7.123619556427002 -8.349550197561065e-15 -2.564141273498535
-8.898892402648926 -9.886997159023504e-15 -3.036290168762207
-10.666051864624023 -1.1253864390403136e-14 -3.4560542106628414
-11.808948516845703 -1.1979801272353225e-14 -3.6789889335632324
-12.733599662780762 -1.2482690662368734e-14 -3.8334259986877446
-13.383925437927246 -1.2601343884653064e-14 -3.869864225387573
-13.86176013946533 -1.2591129514342122e-14 -3.8667275905609126
-13.938293457031252 -1.2076549375588613e-14 -3.708700180053711
-13.869333267211914 -1.1768477563441591e-14 -3.6140913963317867
-14.479743003845215 -1.1733933865786667e-14 -3.6034832000732426
-14.384483337402346 -1.1303562354517387e-14 -3.471316337585449
-14.344319343566895 -1.1027882776339266e-14 -3.3866553306579585
-14.41297435760498 -1.0572810090262157e-14 -3.2469027042388916
-14.752125740051268 -1.0845900288720522e-14 -3.330768823623657
-14.521188735961914 -1.0414817269775549e-14 -3.198383331298828
-15.408042907714844 -1.0531288535187752e-14 -3.234151601791382
-16.731266021728516 -1.031394835125177e-14 -3.1674065589904785
-18.086605072021484 -1.0343576716713779e-14 -3.1765055656433105
-19.745943069458008 -1.098726246432074e-14 -3.3741810321807866
-21.214384078979492 -1.1044895433084869e-14 -3.3918800354003906
-22.361499786376953 -1.087570144890377e-14 -3.339920520782471
-23.408449172973633 -1.0364401868754973e-14 -3.182900905609131
-24.23003387451172 -9.705688062597827e-15 -2.9806101322174072
-24.810468673706055 -9.494956429716324e-15 -2.9158945083618164
-25.147037506103516 -8.68844553865867e-15 -2.668215751647949
-25.175548553466797 -8.288075934381137e-15 -2.545262575149536
-24.948556900024414 -7.749469706078756e-15 -2.379856824874878
-24.478200912475586 -6.976279820616665e-15 -2.1424107551574707
-23.55367088317871 -6.515423593575704e-15 -2.000882148742676
-22.55013084411621 -6.1818069618053886e-15 -1.8984286785125732
-21.857290267944336 -5.632244362330273e-15 -1.7296584844589233
-20.78612518310547 -5.3260283993706876e-15 -1.6356197595596313
-18.69621467590332 -5.141262985003739e-15 -1.578878402709961
-15.597933769226072 -5.337645879758754e-15 -1.6391873359680176
-13.055937767028809 -5.205593866798282e-15 -1.5986343622207642
-10.518888473510742 -5.876409656189324e-15 -1.804641366004944
-8.886744499206543 -6.05011154971571e-15 -1.857985258102417
-7.028037071228027 -5.9554183484103636e-15 -1.8289049863815308
-5.377527236938477 -5.9015737345028286e-15 -1.812369227409363
-3.542042016983032 -5.755926842738925e-15 -1.767641305923462
-1.9040385484695432 -5.5779177866757505e-15 -1.7129749059677124