# vtk DataFile Version 4.0
 
ASCII
DATASET UNSTRUCTURED_GRID
POINTS 51 float
0.0032294827979058027 0.006903131026774645 -0.0032148731406778097
0.0029985597357153893 0.010969995521008968 -0.0024567435029894114
0.0027879877015948296 0.015023804269731047 -0.0020621318835765123
0.0024406220763921738 0.019021600484848022 -0.0017874095356091855
0.001979583641514182 0.022960331290960312 -0.0016152652679011224
0.0015499991131946445 0.02680478431284428 -0.0013459944166243076
0.0013237936655059457 0.03049558773636818 -0.0006429009954445064
0.00136558769736439 0.0340718999505043 0.00027195835718885064
0.0016000348841771481 0.037594396620988846 0.0010544579708948731
0.0019152839668095112 0.041017621755599976 0.001962409121915698
0.002229772275313735 0.04435962438583374 0.002893431345000863
0.002495136111974716 0.04764412343502045 0.003713009646162391
0.002689530374482274 0.05085760354995727 0.004497827030718327
0.00281157111749053 0.05398547649383545 0.005330560728907585
0.0028735389932990074 0.057029690593481064 0.0062002092599868774
0.00289417477324605 0.06000062823295593 0.0070478771813213825
0.0028929314576089382 0.06290794163942337 0.00781881995499134
0.0028857397846877575 0.06575427949428558 0.00849799532443285
0.002882807282730937 0.06853408366441727 0.009116961620748043
0.002889164024963975 0.07123899459838867 0.009723108261823654
0.002906039822846651 0.07386358827352524 0.010347232222557068
0.0029321631882339716 0.07640799880027771 0.010988510213792324
0.002964876824989915 0.07887600362300873 0.011625555343925953
0.003001011675223708 0.08127192407846451 0.012233857065439224
0.003037509974092245 0.08359900861978531 0.012794990092515945
0.0030718371272087097 0.08585918694734573 0.013298013247549532
0.003102224553003907 0.0880531519651413 0.013738996349275112
0.0031277663074433804 0.09018050134181976 0.01412022579461336
0.0031484069768339396 0.09223990887403488 0.014449210837483406
0.0031648471485823393 0.09422935545444489 0.014737428165972231
0.0031782679725438356 0.09614656120538712 0.014997753314673899
0.0031899327877908945 0.09798962622880936 0.015240997076034546
0.0032009012065827847 0.09975740313529968 0.015473706647753716
0.003211877541616559 0.10144962370395659 0.015697328373789787
0.003223159583285451 0.10306690633296968 0.01590837724506855
0.003234656061977148 0.1046105995774269 0.01609925739467144
0.0032459525391459465 0.10608253628015518 0.016259510070085526
0.0032564047724008556 0.10748466849327089 0.016378093510866165
0.0032652423251420264 0.10881807655096055 0.016448885202407837
0.003271671943366527 0.11008216440677641 0.016475236043334007
0.0032749734818935394 0.1112746000289917 0.016470391303300858
0.0032745779026299715 0.11239172518253325 0.01645510084927082
0.0032701271120458846 0.11342911422252655 0.01645444519817829
0.0032615121454000473 0.11438142508268356 0.016498791053891182
0.0032488894648849964 0.1152421310544014 0.01662502810359001
0.003232676535844803 0.11600463837385178 0.016870686784386635
0.0032135276123881336 0.1166638508439064 0.01726457290351391
0.003192296950146556 0.11721774935722352 0.017818167805671692
0.0031699857208877806 0.11766833066940306 0.018520157784223557
0.003147683572024107 0.11802181601524353 0.01933521404862404
0.0031265048310160637 0.11828815937042236 0.020206989720463753

CELLS 50 150
2 0 1
2 1 2
2 2 3
2 3 4
2 4 5
2 5 6
2 6 7
2 7 8
2 8 9
2 9 10
2 10 11
2 11 12
2 12 13
2 13 14
2 14 15
2 15 16
2 16 17
2 17 18
2 18 19
2 19 20
2 20 21
2 21 22
2 22 23
2 23 24
2 24 25
2 25 26
2 26 27
2 27 28
2 28 29
2 29 30
2 30 31
2 31 32
2 32 33
2 33 34
2 34 35
2 35 36
2 36 37
2 37 38
2 38 39
2 39 40
2 40 41
2 41 42
2 42 43
2 43 44
2 44 45
2 45 46
2 46 47
2 47 48
2 48 49
2 49 50

CELL_TYPES 50
4
4
4
4
4
4
4
4
4
4
4
4
4
4
4
4
4
4
4
4
4
4
4
4
4
4
4
4
4
4
4
4
4
4
4
4
4
4
4
4
4
4
4
4
4
4
4
4
4
4

POINT_DATA 51

SCALARS zone float
LOOKUP_TABLE default
1.0
1.0
1.0
1.0
1.0
1.0
1.0
1.0
1.0
1.0
1.0
1.0
1.0
1.0
1.0
1.0
1.0
1.0
1.0
1.0
1.0
1.0
1.0
1.0
1.0
1.0
1.0
1.0
1.0
1.0
1.0
1.0
1.0
1.0
1.0
1.0
1.0
1.0
1.0
1.0
1.0
1.0
1.0
1.0
1.0
1.0
1.0
1.0
1.0
1.0
1.0

VECTORS normals float
-0.00011546154564712197 0.002033432014286518 0.0003790648188441992
-0.00022074757725931704 0.004060336854308844 0.0005763706285506487
-0.0002789688587654382 0.004025802947580814 0.0003346670127939433
-0.00040420211735181516 0.0039682635106146336 0.00022343338059727103
-0.00044531151070259506 0.00389159144833684 0.0002207075740443543
-0.0003278949297964573 0.0037676282227039333 0.0004861821362283081
-9.220571519108489e-5 0.0036335580516606574 0.0008089763578027487
0.00013812060933560133 0.0035494044423103333 0.0008486795122735202
0.0002748481638263911 0.0034728606697171926 0.0008452254114672542
0.0003148686664644629 0.0033826136495918036 0.0009194866288453339
0.00028992604347877204 0.0033132520038634534 0.0008753003203310074
0.00022987906413618475 0.0032489891164004803 0.0008021979592740536
0.00015821750275790691 0.0031706765294075017 0.0008087754249572754
9.200429485645145e-5 0.0030860446859151125 0.0008511911146342754
4.130187880946323e-5 0.0030075751710683107 0.0008586581679992378
9.696207598608453e-6 0.0029391245916485786 0.0008093052892945707
-4.217552486807108e-6 0.0028768265619874 0.0007250594208016992
-5.062076070316834e-6 0.002813072642311454 0.0006490707746706903
1.7121039945777738e-6 0.002742358250543475 0.0006125563522800803
1.1616368283284828e-5 0.00266475067473948 0.0006151351262815297
2.149965257558506e-5 0.0025845004711300135 0.0006327010923996568
2.9418395570246506e-5 0.002506208373233676 0.0006391617935150862
3.442417073529214e-5 0.0024319631047546864 0.0006226730183698237
3.63165709131863e-5 0.0023615029640495777 0.0005847171414643526
3.5412773286225274e-5 0.0022936316672712564 0.0005320783238857985
3.2357384043280035e-5 0.0022270716726779938 0.0004720030701719224
2.7964591936324723e-5 0.0021606567315757275 0.00041110615711659193
2.309120463905856e-5 0.0020933779887855053 0.0003551076224539429
1.854042238846887e-5 0.0020244254264980555 0.00030860138940624893
1.493051149736857e-5 0.0019533259328454733 0.0002742708893492818
1.2542826880235225e-5 0.001880138064734638 0.0002517843386158347
1.1316546078887768e-5 0.0018054199172183871 0.00023797665198799223
1.0972400559694506e-5 0.0017299969913437965 0.00022816608543507755
1.1129222002637107e-5 0.0016547538107261062 0.0002173358079744503
1.1389166502340231e-5 0.0015804877039045095 0.0002009642630582675
1.1396474292268977e-5 0.0015078132273629308 0.0001755662524374202
1.0874458894249983e-5 0.00143703434150666 0.00013941781071480364
9.644884812587406e-6 0.0013677687384188175 9.468714415561408e-5
7.633578206878155e-6 0.001298747374676168 4.857146632275544e-5
4.865619757765671e-6 0.0012282629031687975 1.0753460628620815e-5
1.4529367717841524e-6 0.0011547813192009926 -1.0067384209833108e-5
-2.4232347186625702e-6 0.0010772591922432184 -7.973097126523498e-6
-6.532860879815417e-6 0.0009948487859219313 2.184459299314767e-5
-1.0618759006320033e-5 0.0009065084741450846 8.529167098458856e-5
-1.4417873899219556e-5 0.0008116072858683765 0.00018594766152091324
-1.7680962628219277e-5 0.000710857508238405 0.0003197725163772702
-2.018977284024004e-5 0.0006065558991394937 0.00047374083078466356
-2.1771005776827224e-5 0.000502239738125354 0.0006277917418628931
-2.2306650862446986e-5 0.0004020354244858026 0.0007585232378914952
-2.1740446754847653e-5 0.00030991373932920396 0.0008434159099124372
-1.058942416420905e-5 0.00013316843251232058 0.00043588742846623063

CELL_DATA 50

VECTORS liftinglineloading               float
0.14613263309001923 -0.03103798441588879 0.11583533138036728
0.2222543656826019 -0.05373550951480866 0.20054365694522858
-0.0744025856256485 -0.012749264016747473 0.04758090153336525
0.12444699555635454 -0.018387405201792717 0.06862273067235947
0.14769011735916138 -0.031893644481897354 0.11902870237827301
-0.5326345562934875 -0.10558961331844328 0.394065797328949
-1.7169920206069946 -0.23291423916816711 0.8692477941513062
-3.3847708702087407 -0.3804449737071991 1.4198399782180786
-5.329280853271484 -0.5279757976531982 1.9704324007034302
-7.510936260223389 -0.6805230379104614 2.5397465229034424
-9.682411193847656 -0.8166433572769165 3.0477545261383057
-11.584578514099121 -0.9250407218933105 3.4522991180419917
-12.838374137878418 -0.9815076589584351 3.663036584854126
-13.82270622253418 -1.0235196352005005 3.8198273181915283
-14.576283454895018 -1.03938889503479 3.87905216217041
-15.13479518890381 -1.039984941482544 3.881276607513428
-15.275272369384766 -1.0077691078186035 3.7610456943511963
-15.25388717651367 -0.9811602234840394 3.661739826202392
-15.946002960205078 -0.9783956408500671 3.651422262191773
-15.850817680358887 -0.940977931022644 3.511777400970459
-15.81931686401367 -0.917062282562256 3.4225230216979976
-15.74585723876953 -0.8741238117218016 3.2622745037078857
-16.070018768310547 -0.8912019729614258 3.3260109424591064
-15.816779136657715 -0.854502260684967 3.1890459060668945
-16.66434669494629 -0.8593147993087767 3.2070066928863525
-17.91114044189453 -0.8382760286331176 3.128488779067993
-18.452171325683594 -0.8252475261688232 3.0798656940460205
-20.028287887573242 -0.8733826279640199 3.25950837135315
-21.473918914794922 -0.8770025968551636 3.27301836013794
-22.60484504699707 -0.8627269864082338 3.219740867614746
-23.617000579833984 -0.8218978047370911 3.067364454269409
-24.4215087890625 -0.7687699198722839 2.8690884113311768
-24.99312973022461 -0.7524219155311584 2.808076858520508
-25.326921463012695 -0.6869643330574036 2.5637857913970947
-25.373313903808594 -0.6550521850585938 2.444688081741333
-25.147993087768555 -0.6122581362724304 2.2849783897399902
-24.680862426757812 -0.5515596866607666 2.0584487915039062
-23.743886947631836 -0.5151341557502747 1.922506928443909
-22.74420166015625 -0.48892748355865473 1.824702262878418
-21.730192184448242 -0.4474847316741944 1.670035719871521
-20.722375869750977 -0.4227302074432373 1.5776506662368774
-18.684885025024414 -0.4078577160835266 1.5221457481384277
-15.626814842224121 -0.4236368536949157 1.5810341835021973
-13.176694869995119 -0.4135969877243042 1.543565034866333
-10.63245677947998 -0.468106746673584 1.7469981908798218
-9.00705337524414 -0.4822606444358825 1.7998212575912476
-7.144716739654542 -0.47528931498527527 1.7738038301467898
-5.488933563232422 -0.4713078737258911 1.7589448690414429
-3.633821964263916 -0.46019840240478516 1.7174837589263914
-1.966983914375305 -0.44656303524971014 1.6665959358215332