# vtk DataFile Version 4.0
 
ASCII
DATASET UNSTRUCTURED_GRID
POINTS 51 float
0.0032294827979058027 0.003804287174716592 0.006596667692065239
0.0029985597357153893 0.0034034929703921075 0.010714131407439709
0.0027879877015948296 0.0033636956941336393 0.014786907471716404
0.0024406220763921738 0.0034384496975690126 0.018793435767292976
0.001979583641514182 0.0036102433223277335 0.02273218147456646
0.0015499991131946445 0.003677063388749957 0.026585472747683525
0.0013237936655059457 0.003298320109024644 0.030323510989546772
0.00136558769736439 0.002698638243600726 0.03396594896912575
0.0016000348841771481 0.0022261221893131733 0.03754324093461037
0.0019152839668095112 0.0016199796227738261 0.0410325713455677
0.002229772275313735 0.0009837751276791096 0.044443000108003616
0.002495136111974716 0.0004535784828476607 0.04778643324971199
0.002689530374482274 -4.817952503799461e-5 0.05105608701705933
0.00281157111749053 -0.0006051317905075848 0.054244637489318855
0.0028735389932990074 -0.001206150627695024 0.057353060692548745
0.00289417477324605 -0.0017916583456099031 0.06038657203316689
0.0028929314576089382 -0.002306278795003891 0.06335001438856125
0.0028857397846877575 -0.002734794979915023 0.0662447139620781
0.002882807282730937 -0.00310912961140275 0.06906788796186447
0.002889164024963975 -0.003477221354842186 0.07181533426046371
0.002906039822846651 -0.003870221786201 0.07448433339595795
0.0029321631882339716 -0.004287300165742636 0.07707495242357254
0.002964876824989915 -0.004706820007413626 0.07958909124135971
0.003001011675223708 -0.005103988107293844 0.08202891051769257
0.003037509974092245 -0.005460167303681374 0.08439604938030243
0.0030718371272087097 -0.005764288827776909 0.0866914689540863
0.003102224553003907 -0.006012376863509417 0.08891551941633224
0.0031277663074433804 -0.006206745281815529 0.09106799960136414
0.0031484069768339396 -0.00635498994961381 0.09314823895692825
0.0031648471485823393 -0.006468718871474266 0.09515523165464401
0.0031782679725438356 -0.006560957059264184 0.09708783775568008
0.0031899327877908945 -0.006642641499638557 0.09894508868455887
0.0032009012065827847 -0.006720393896102905 0.100726418197155
0.003211877541616559 -0.0067956787534058085 0.10243169218301773
0.003223159583285451 -0.0068649686872959146 0.10406121611595154
0.003234656061977148 -0.006920580752193929 0.10561566799879075
0.0032459525391459465 -0.006951936054974794 0.10709597170352936
0.0032564047724008556 -0.006947863847017287 0.10850310325622559
0.0032652423251420264 -0.006902171764522791 0.1098375990986824
0.003271671943366527 -0.006818250287324189 0.11109917610883714
0.0032749734818935394 -0.00670949649065733 0.11228665709495543
0.0032745779026299715 -0.006596900522708893 0.11339819431304932
0.0032701271120458846 -0.006505832076072694 0.11443158239126205
0.0032615121454000473 -0.006467009894549847 0.11538413166999818
0.0032488894648849964 -0.00651775160804391 0.11625257134437561
0.003232676535844803 -0.006696017924696207 0.11703357845544814
0.0032135276123881336 -0.007030952256172895 0.11772461235523225
0.003192296950146556 -0.007534164469689132 0.1183246523141861
0.0031699857208877806 -0.0081942118704319 0.11883470416069031
0.003147683572024107 -0.008975358679890633 0.11925788223743439
0.0031265048310160637 -0.009820602834224701 0.11959918588399886

CELLS 50 150
2 0 1
2 1 2
2 2 3
2 3 4
2 4 5
2 5 6
2 6 7
2 7 8
2 8 9
2 9 10
2 10 11
2 11 12
2 12 13
2 13 14
2 14 15
2 15 16
2 16 17
2 17 18
2 18 19
2 19 20
2 20 21
2 21 22
2 22 23
2 23 24
2 24 25
2 25 26
2 26 27
2 27 28
2 28 29
2 29 30
2 30 31
2 31 32
2 32 33
2 33 34
2 34 35
2 35 36
2 36 37
2 37 38
2 38 39
2 39 40
2 40 41
2 41 42
2 42 43
2 43 44
2 44 45
2 45 46
2 46 47
2 47 48
2 48 49
2 49 50

CELL_TYPES 50
4
4
4
4
4
4
4
4
4
4
4
4
4
4
4
4
4
4
4
4
4
4
4
4
4
4
4
4
4
4
4
4
4
4
4
4
4
4
4
4
4
4
4
4
4
4
4
4
4
4

POINT_DATA 51

SCALARS zone float
LOOKUP_TABLE default
1.0
1.0
1.0
1.0
1.0
1.0
1.0
1.0
1.0
1.0
1.0
1.0
1.0
1.0
1.0
1.0
1.0
1.0
1.0
1.0
1.0
1.0
1.0
1.0
1.0
1.0
1.0
1.0
1.0
1.0
1.0
1.0
1.0
1.0
1.0
1.0
1.0
1.0
1.0
1.0
1.0
1.0
1.0
1.0
1.0
1.0
1.0
1.0
1.0
1.0
1.0

VECTORS normals float
-0.00011546154564712197 -0.00020039707305841148 0.0020587320905178785
-0.00022074757725931704 -0.0002202956675319001 0.0040951198898255825
-0.0002789688587654382 1.7478336303611286e-5 0.0040396517142653465
-0.00040420211735181516 0.00012327381409704685 0.0039726365357637405
-0.00044531151070259506 0.00011930681648664176 0.0038960184901952744
-0.0003278949297964573 -0.0001559616212034598 0.0037956647574901585
-9.220571519108489e-5 -0.0004892125143669546 0.0036902381107211113
0.00013812060933560133 -0.0005360990180633962 0.003609865205362439
0.0002748481638263911 -0.00053932931041345 0.003533311653882265
0.0003148686664644629 -0.0006211735308170319 0.0034498802851885557
0.00028992604347877204 -0.0005832005990669131 0.003376931650564075
0.00022987906413618475 -0.0005159773281775415 0.0033065418247133493
0.00015821750275790691 -0.0005293551366776228 0.003229100489988923
9.200429485645145e-5 -0.0005789855495095253 0.003148487536236644
4.130187880946323e-5 -0.0005932632484473288 0.0030709675047546625
9.696207598608453e-6 -0.0005500640836544335 0.002998475916683674
-4.217552486807108e-6 -0.0004715683753602207 0.0029290723614394665
-5.062076070316834e-6 -0.0004014254081994295 0.0028589381836354733
1.7121039945777738e-6 -0.00037121312925592065 0.0027853106148540974
1.1616368283284828e-5 -0.00038054600008763373 0.002708223182708025
2.149965257558506e-5 -0.0004050394054502249 0.0026298093143850565
2.9418395570246506e-5 -0.00041829913971014326 0.002552378224208951
3.442417073529214e-5 -0.0004083439998794347 0.002476978348568082
3.63165709131863e-5 -0.000376673589926213 0.0024034781381487846
3.5412773286225274e-5 -0.00033015041844919324 0.0023312773555517197
3.2357384043280035e-5 -0.00027610486722551286 0.002259734785184264
2.7964591936324723e-5 -0.00022122812515590337 0.0021882650908082724
2.309120463905856e-5 -0.00017130641208495945 0.0021163616329431534
1.854042238846887e-5 -0.00013098676572553813 0.0020436181221157312
1.493051149736857e-5 -0.00010298362030880526 0.0019697973039001226
1.2542826880235225e-5 -8.696140139363706e-5 0.0018949280492961405
1.1316546078887768e-5 -7.971836748765782e-5 0.0018192908028140664
1.0972400559694506e-5 -7.651867781532928e-5 0.0017432997701689599
1.1129222002637107e-5 -7.228748290799558e-5 0.0016673990758135915
1.1389166502340231e-5 -6.24509557383135e-5 0.001591988722793758
1.1396474292268977e-5 -4.348359288997017e-5 0.0015173772117123008
1.0874458894249983e-5 -1.3641487385029906e-5 0.0014437170466408134
9.644884812587406e-6 2.488206882844679e-5 0.0013708164915442467
7.633578206878155e-6 6.480665615526959e-5 0.0012980385217815638
4.865619757765671e-6 9.633762238081545e-5 0.0012245262041687965
1.4529367717841524e-6 0.00011067489685956389 0.0011495095677673817
-2.4232347186625702e-6 0.0001018320836010389 0.0010724649764597416
-6.532860879815417e-6 6.494531407952309e-5 0.0009929669322445989
-1.0618759006320033e-5 -5.959695045021363e-6 0.0009104926139116287
-1.4417873899219556e-5 -0.00011450384772615507 0.0008247252553701401
-1.7680962628219277e-5 -0.0002566003822721541 0.0007360224844887853
-2.018977284024004e-5 -0.00041907327249646187 0.0006455369875766337
-2.1771005776827224e-5 -0.0005816296907141805 0.0005550442147068679
-2.2306650862446986e-5 -0.0007205971633084118 0.00046661522355861967
-2.1740446754847653e-5 -0.0008131957147270442 0.0003822429571300745
-1.058942416420905e-5 -0.00042262233910150826 0.00017065177962649614

CELL_DATA 50

VECTORS liftinglineloading               float
0.1271941363811493 -0.10749641805887222 -0.01895451918244362
0.18281689286231995 -0.17599652707576752 -0.03103293664753437
-0.0707322210073471 -0.055021677166223526 -0.009701806120574474
0.1402651071548462 -0.07270867377519608 -0.012820500880479813
0.13980159163475037 -0.12345166504383087 -0.021767860278487206
-0.5054712295532227 -0.390861451625824 -0.06891942024230957
-1.610642910003662 -0.8528137803077698 -0.15037406980991364
-3.0992350578308105 -1.38442862033844 -0.24411211907863617
-4.9425764083862305 -1.9433376789093018 -0.34266287088394165
-6.982265949249268 -2.5153002738952637 -0.44351527094841
-9.181543350219727 -3.057286262512207 -0.5390820503234863
-10.984579086303711 -3.4736757278442383 -0.6125027537345886
-12.153456687927246 -3.693699598312378 -0.6512988805770874
-13.089567184448242 -3.8475613594055176 -0.6784288883209229
-13.75187301635742 -3.885453462600708 -0.6851102709770203
-14.234677314758303 -3.8808927536010747 -0.6843060851097107
-14.307684898376463 -3.72545051574707 -0.6568974256515503
-14.235447883605957 -3.62835955619812 -0.639777660369873
-14.91813850402832 -3.6234226226806645 -0.6389071941375732
-14.851771354675293 -3.492300033569336 -0.6157867312431335
-14.866968154907227 -3.4117977619171143 -0.6015920042991638
-14.97671413421631 -3.2730050086975093 -0.5771191120147705
-15.419379234313965 -3.360319852828979 -0.5925150513648987
-15.309285163879396 -3.235038995742798 -0.5704246759414673
-16.3463134765625 -3.2730500698089595 -0.5771270394325256
-17.813079833984375 -3.2077033519744873 -0.5656046271324158
-18.55435562133789 -3.168876886367798 -0.5587584972381592
-20.352725982666016 -3.363090991973877 -0.5930036902427673
-22.009906768798828 -3.3799910545349117 -0.595983624458313
-23.335119247436523 -3.3229823112487797 -0.5859314203262329
-24.461111068725586 -3.163682699203491 -0.5578426122665405
-25.348419189453125 -2.9487428665161133 -0.5199429392814636
-25.968080520629883 -2.886441707611084 -0.50895756483078
-26.321596145629883 -2.614264726638794 -0.46096542477607727
-26.49898338317871 -2.4836230278015137 -0.43792974948883057
-26.21997833251953 -2.317789316177368 -0.4086887836456298
-25.703048706054688 -2.0927841663360596 -0.36901432275772095
-24.665874481201172 -1.9546644687652586 -0.34466007351875305
-23.62175750732422 -1.856974959373474 -0.32743480801582336
-22.55398941040039 -1.69441556930542 -0.2987711727619171
-21.511594772338867 -1.6043243408203125 -0.28288567066192627
-19.398412704467773 -1.5531476736068726 -0.2738618552684784
-16.265472412109375 -1.6254762411117551 -0.2866153120994568
-13.66894245147705 -1.5906280279159546 -0.2804706394672394
-11.120341300964355 -1.8130571842193604 -0.31969088315963745
-9.459623336791992 -1.8682277202606203 -0.32941895723342896
-7.533636093139648 -1.8435386419296267 -0.32506558299064636
-5.818410396575928 -1.827555537223816 -0.32224732637405396
-3.880413293838501 -1.7852107286453247 -0.3147808313369751
-2.1228697299957275 -1.7331374883651733 -0.3055989146232605