# vtk DataFile Version 4.0
 
ASCII
DATASET UNSTRUCTURED_GRID
POINTS 51 float
0.0032294827979058027 -0.0026009920984506607 -0.00715705705806613
0.0029985597357153893 -0.0014912968035787344 -0.011142370291054249
0.0027879877015948296 -0.0007448741234838963 -0.015146360732614994
0.0024406220763921738 -0.00012276615598239005 -0.01910500042140484
0.001979583641514182 0.00039200609899125993 -0.02301374077796936
0.0015499991131946445 0.0009953182889148593 -0.026820095255970955
0.0013237936655059457 0.002017411170527339 -0.03043557517230511
0.00136558769736439 0.0032404852099716663 -0.03391854465007782
0.0016000348841771481 0.004327013157308102 -0.037359438836574554
0.0019152839668095112 0.005529862828552723 -0.040690500289201736
0.002229772275313735 0.006748616695404054 -0.04393864423036575
0.002495136111974716 0.007851339876651764 -0.04713921621441841
0.002689530374482274 0.008913244120776653 -0.05027206242084503
0.00281157111749053 0.010015420615673065 -0.053315456956624985
0.0028735389932990074 0.011147080920636654 -0.05627229437232018
0.00289417477324605 0.01225045695900917 -0.05915804579854012
0.0028929314576089382 0.01327185519039631 -0.06198710203170777
0.0028857397846877575 0.01419652160257101 -0.06476341933012009
0.002882807282730937 0.015055407769978045 -0.06747869402170181
0.002889164024963975 0.015894996002316475 -0.07012049108743668
0.002906039822846651 0.016745492815971375 -0.07268069684505463
0.0029321631882339716 0.017606092616915703 -0.07515953481197357
0.002964876824989915 0.018455812707543373 -0.07756262272596359
0.003001011675223708 0.01927061751484871 -0.07989641278982162
0.003037509974092245 0.020032435655593872 -0.08216573297977448
0.0030718371272087097 0.020730530843138695 -0.08437346667051315
0.003102224553003907 0.021361052989959717 -0.08652064949274063
0.0031277663074433804 0.021926242858171463 -0.08860667794942856
0.0031484069768339396 0.022433465346693993 -0.09062957763671875
0.0031648471485823393 0.02289397642016411 -0.09258633106946945
0.0031782679725438356 0.023320406675338745 -0.09447355568408966
0.0031899327877908945 0.023723360151052475 -0.09628840535879135
0.0032009012065827847 0.0241092536598444 -0.09802917391061783
0.003211877541616559 0.024479513987898827 -0.09969546645879745
0.003223159583285451 0.024830713868141174 -0.10128819942474365
0.003234656061977148 0.025155410170555115 -0.10280937701463698
0.0032459525391459465 0.025443339720368385 -0.10426174849271774
0.0032564047724008556 0.025683674961328506 -0.10564821213483809
0.0032652423251420264 0.025870412588119503 -0.1069703698158264
0.003271671943366527 0.02600683644413948 -0.10822735726833344
0.0032749734818935394 0.02610593661665916 -0.10941567271947861
0.0032745779026299715 0.026188069954514507 -0.11052988469600677
0.0032701271120458846 0.026277830824255943 -0.11156338453292847
0.0032615121454000473 0.026405004784464836 -0.11250820010900497
0.0032488894648849964 0.026605779305100438 -0.1133546382188797
0.003232676535844803 0.026916958391666412 -0.1140928268432617
0.0032135276123881336 0.027366802096366886 -0.11471520364284515
0.003192296950146556 0.0279665645211935 -0.11521874368190765
0.0031699857208877806 0.028705153614282608 -0.11560642719268797
0.003147683572024107 0.029547916725277897 -0.11588753759860992
0.0031265048310160637 0.030439587309956547 -0.11607687920331955

CELLS 50 150
2 0 1
2 1 2
2 2 3
2 3 4
2 4 5
2 5 6
2 6 7
2 7 8
2 8 9
2 9 10
2 10 11
2 11 12
2 12 13
2 13 14
2 14 15
2 15 16
2 16 17
2 17 18
2 18 19
2 19 20
2 20 21
2 21 22
2 22 23
2 23 24
2 24 25
2 25 26
2 26 27
2 27 28
2 28 29
2 29 30
2 30 31
2 31 32
2 32 33
2 33 34
2 34 35
2 35 36
2 36 37
2 37 38
2 38 39
2 39 40
2 40 41
2 41 42
2 42 43
2 43 44
2 44 45
2 45 46
2 46 47
2 47 48
2 48 49
2 49 50

CELL_TYPES 50
4
4
4
4
4
4
4
4
4
4
4
4
4
4
4
4
4
4
4
4
4
4
4
4
4
4
4
4
4
4
4
4
4
4
4
4
4
4
4
4
4
4
4
4
4
4
4
4
4
4

POINT_DATA 51

SCALARS zone float
LOOKUP_TABLE default
1.0
1.0
1.0
1.0
1.0
1.0
1.0
1.0
1.0
1.0
1.0
1.0
1.0
1.0
1.0
1.0
1.0
1.0
1.0
1.0
1.0
1.0
1.0
1.0
1.0
1.0
1.0
1.0
1.0
1.0
1.0
1.0
1.0
1.0
1.0
1.0
1.0
1.0
1.0
1.0
1.0
1.0
1.0
1.0
1.0
1.0
1.0
1.0
1.0
1.0
1.0

VECTORS normals float
-0.00011546154564712197 0.0005548476474359632 -0.0019926566164940596
-0.00022074757725931704 0.0009280590456910431 -0.003994652070105076
-0.0002789688587654382 0.0006842653383500874 -0.003981315530836582
-0.00040420211735181516 0.0005684401257894933 -0.003933689557015896
-0.00044531151070259506 0.0005590422661043704 -0.003857546718791127
-0.0003278949297964573 0.0008127025212161243 -0.0037109176628291607
-9.220571519108489e-5 0.0011225834023207426 -0.0035492242313921456
0.00013812060933560133 0.0011548009933903813 -0.0034619306679815054
0.0002748481638263911 0.0011446888092905283 -0.0033859792165458202
0.0003148686664644629 0.0012108018854632974 -0.0032896031625568867
0.00028992604347877204 0.0011607385240495205 -0.0032243565656244755
0.00022987906413618475 0.0010823134798556566 -0.0031667095609009266
0.00015821750275790691 0.0010820404859259725 -0.0030881217680871487
9.200429485645145e-5 0.001116918632760644 -0.003000115044414997
4.130187880946323e-5 0.0011175181716680527 -0.0029212934896349907
9.696207598608453e-6 0.0010623872512951493 -0.002857404761016369
-4.217552486807108e-6 0.0009730322635732592 -0.0028026863001286983
-5.062076070316834e-6 0.0008917762897908689 -0.0027457978576421738
1.7121039945777738e-6 0.0008492376655340194 -0.00267853494733572
1.1616368283284828e-5 0.000845042639411986 -0.002600997919216752
2.149965257558506e-5 0.0008555475506000221 -0.0025195220950990915
2.9418395570246506e-5 0.0008551600622013212 -0.002440965035930276
3.442417073529214e-5 0.0008322630892507732 -0.00236843922175467
3.63165709131863e-5 0.0007883106591179967 -0.0023015551269054413
3.5412773286225274e-5 0.0007299567805603147 -0.0022385299671441317
3.2357384043280035e-5 0.0006643090746365488 -0.0021774591878056526
2.7964591936324723e-5 0.000597855425439775 -0.0021166044753044844
2.309120463905856e-5 0.0005362062365747988 -0.0020544622093439102
1.854042238846887e-5 0.00048386736307293177 -0.0019898253958672285
1.493051149736857e-5 0.0004434707807376981 -0.0019219886744394898
1.2542826880235225e-5 0.000414691079640761 -0.0018510391237214208
1.1316546078887768e-5 0.0003944238123949617 -0.0017778087640181184
1.0972400559694506e-5 0.0003780770057346672 -0.0017035278724506497
1.1129222002637107e-5 0.00036073007504455745 -0.001629514968954027
1.1389166502340231e-5 0.00033794812043197453 -0.0015569583047181368
1.1396474292268977e-5 0.00030631275149062276 -0.0014867739519104362
1.0874458894249983e-5 0.0002641330938786268 -0.0014194149989634752
9.644884812587406e-6 0.0002135357353836298 -0.0013543114764615893
7.633578206878155e-6 0.00016157992649823427 -0.0012895719846710563
4.865619757765671e-6 0.00011776270548580213 -0.001222651801072061
1.4529367717841524e-6 9.061674791155383e-5 -0.0011512644123286009
-2.4232347186625702e-6 8.59465726534836e-5 -0.0010738548589870334
-6.532860879815417e-6 0.00010846825171029195 -0.0009891591034829617
-1.0618759006320033e-5 0.0001639745314605534 -0.0008956252713687718
-1.4417873899219556e-5 0.00025597630883567035 -0.0007923124358057977
-1.7680962628219277e-5 0.0003805109881795943 -0.0006802824791520834
-2.018977284024004e-5 0.0005248029483482242 -0.0005629585357382894
-2.1771005776827224e-5 0.0006691758753731847 -0.00044561290997080505
-2.2306650862446986e-5 0.0007906765677034855 -0.0003343959106132388
-2.1740446754847653e-5 0.0008672172552905977 -0.00023522587434854358
-1.058942416420905e-5 0.00044583514682017267 -9.467159543419257e-5

CELL_DATA 50

VECTORS liftinglineloading               float
0.12694315612316132 0.10251185297966002 0.037311263382434845
0.1820915788412094 0.1674836128950119 0.06095904856920242
-0.07084636390209198 0.05275856330990791 0.019202547147870064
0.14056767523288727 0.06949154287576675 0.025292854756116867
0.15004123747348785 0.11409304291009903 0.041526470333337784
-0.4742393493652343 0.36143186688423157 0.13155043125152588
-1.5619128942489624 0.7986277341842651 0.29067671298980713
-3.1206817626953125 1.327720284461975 0.4832506775856018
-4.98309326171875 1.8645485639572144 0.6786401867866516
-7.055373191833496 2.415461301803589 0.8791559934616089
-9.158596992492676 2.9152097702026367 1.0610495805740356
-10.956952095031738 3.312663316726685 1.205710768699646
-12.119966506958008 3.522850513458252 1.282212734222412
-13.052209854125977 3.6692440509796143 1.3354955911636353
-13.708914756774902 3.704208374023438 1.3482216596603394
-14.187546730041502 3.6994423866271977 1.3464869260787964
-14.257506370544432 3.5494732856750493 1.2919026613235474
-14.184229850769045 3.457104206085205 1.258283019065857
-14.813939094543457 3.4467387199401855 1.2545102834701538
-14.732759475708008 3.3208575248718266 1.208693265914917
-14.727017402648926 3.2425243854522705 1.1801823377609253
-14.827278137207031 3.1103250980377197 1.132065773010254
-15.240992546081545 3.193006992340088 1.1621594429016113
-15.09650707244873 3.07182240486145 1.1180518865585327
-16.096878051757812 3.108027219772339 1.1312294006347656
-17.532686233520508 3.0457603931427 1.108566164970398
-18.21721649169922 3.0062968730926514 1.0942025184631348
-20.0008602142334 3.1974966526031494 1.163793683052063
-21.610639572143555 3.216324806213379 1.1706465482711792
-22.899642944335938 3.166200637817383 1.1524027585983276
-24.0373477935791 3.016368865966797 1.0978684425354004
-24.932069778442383 2.8175203800201416 1.0254935026168823
-25.562362670898438 2.757075309753418 1.0034934282302856
-25.92864418029785 2.507164478302002 0.9125332236289978
-25.984821319580078 2.3876824378967285 0.8690453767776489
-25.761802673339844 2.22880482673645 0.8112186193466187
-25.175765991210938 2.0115506649017334 0.7321445941925049
-24.475570678710938 1.8713985681533813 0.6811333894729614
-23.402650833129883 1.7780598402023315 0.6471608877182007
-22.316781997680664 1.624741792678833 0.5913576483726501
-21.25519561767578 1.5375369787216187 0.5596176981925964
-19.142501831054688 1.4865859746932983 0.5410730242729187
-16.01102638244629 1.550341248512268 0.5642780661582947
-13.426352500915526 1.5147596597671509 0.5513274669647217
-10.841392517089844 1.7179681062698366 0.625289261341095
-9.195919036865234 1.7699309587478635 0.6442021727561951
-7.299837112426758 1.7448221445083618 0.6350633502006531
-5.611894607543945 1.729646444320679 0.6295398473739624
-3.7184944152832036 1.688620924949646 0.6146077513694763
-2.0152504444122314 1.6382983922958374 0.5962918400764465