# vtk DataFile Version 4.0
 
ASCII
DATASET UNSTRUCTURED_GRID
POINTS 51 float
0.0032294827979058027 0.0026079921517521143 -0.007154509425163269
0.0029985597357153893 0.006019778084009886 -0.009494137950241566
0.0027879877015948296 0.009165287017822266 -0.012081582099199295
0.0024406220763921738 0.012186413630843163 -0.014714192599058151
0.001979583641514182 0.015093240886926651 -0.017377572134137154
0.0015499991131946445 0.018002081662416458 -0.019905606284737587
0.0013237936655059457 0.02110903710126877 -0.02201823703944683
0.00136558769736439 0.02428477443754673 -0.023900168016552925
0.0016000348841771481 0.027328867465257648 -0.025837639346718788
0.0019152839668095112 0.030391471460461613 -0.02761620469391346
0.002229772275313735 0.033412955701351166 -0.029321026057004932
0.002495136111974716 0.03631497919559479 -0.0310639888048172
0.002689530374482274 0.039142198860645294 -0.03278131037950516
0.00281157111749053 0.0419427715241909 -0.034404221922159195
0.0028735389932990074 0.04471029341220856 -0.035941872745752335
0.00289417477324605 0.04741045460104942 -0.03744325041770935
0.0028929314576089382 0.050011374056339264 -0.03895388916134834
0.0028857397846877575 0.05250428989529609 -0.04048630967736244
0.002882807282730937 0.05490758270025253 -0.04201425239443779
0.002889164024963975 0.05724885314702988 -0.04349830374121666
0.002906039822846651 0.05954604223370552 -0.04491284489631653
0.0029321631882339716 0.061798665672540665 -0.04625856503844261
0.002964876824989915 0.06399426609277725 -0.04755324870347977
0.003001011675223708 0.06611857563257217 -0.048817288130521774
0.003037509974092245 0.06816085427999496 -0.05006600171327591
0.0030718371272087097 0.07011473178863525 -0.05130849778652191
0.003102224553003907 0.07197792083024979 -0.052548043429851525
0.0031277663074433804 0.07375175505876541 -0.05378273874521256
0.0031484069768339396 0.07544060051441193 -0.055006328970193856
0.0031648471485823393 0.07705114781856537 -0.05620927736163139
0.0031782679725438356 0.07859089970588684 -0.057380873709917075
0.0031899327877908945 0.08006614446640015 -0.058512117713689804
0.0032009012065827847 0.08148069679737091 -0.059597570449113846
0.003211877541616559 0.08283540606498718 -0.06063602864742279
0.003223159583285451 0.0841282308101654 -0.06163038685917855
0.003234656061977148 0.0853547602891922 -0.06258697062730789
0.0032459525391459465 0.08650889247655869 -0.06351447105407715
0.0032564047724008556 0.08758419752120972 -0.06442207843065262
0.0032652423251420264 0.08857711404561996 -0.065314881503582
0.003271671943366527 0.08948959410190582 -0.06619009375572205
0.0032749734818935394 0.09032934904098511 -0.0670366957783699
0.0032745779026299715 0.09110846370458603 -0.0678374394774437
0.0032701271120458846 0.09184154868125916 -0.06857144832611084
0.0032615121454000473 0.09254628419876099 -0.06921347230672836
0.0032488894648849964 0.09324416518211365 -0.06973282247781754
0.003232676535844803 0.09395704418420792 -0.07009828835725784
0.0032135276123881336 0.09470169246196747 -0.07028590142726898
0.003192296950146556 0.09548481553792953 -0.07028611749410629
0.0031699857208877806 0.09629980474710464 -0.07010834664106369
0.003147683572024107 0.09712608903646469 -0.06978196650743484
0.0031265048310160637 0.09793085604906082 -0.0693538561463356

CELLS 50 150
2 0 1
2 1 2
2 2 3
2 3 4
2 4 5
2 5 6
2 6 7
2 7 8
2 8 9
2 9 10
2 10 11
2 11 12
2 12 13
2 13 14
2 14 15
2 15 16
2 16 17
2 17 18
2 18 19
2 19 20
2 20 21
2 21 22
2 22 23
2 23 24
2 24 25
2 25 26
2 26 27
2 27 28
2 28 29
2 29 30
2 30 31
2 31 32
2 32 33
2 33 34
2 34 35
2 35 36
2 36 37
2 37 38
2 38 39
2 39 40
2 40 41
2 41 42
2 42 43
2 43 44
2 44 45
2 45 46
2 46 47
2 47 48
2 48 49
2 49 50

CELL_TYPES 50
4
4
4
4
4
4
4
4
4
4
4
4
4
4
4
4
4
4
4
4
4
4
4
4
4
4
4
4
4
4
4
4
4
4
4
4
4
4
4
4
4
4
4
4
4
4
4
4
4
4

POINT_DATA 51

SCALARS zone float
LOOKUP_TABLE default
1.0
1.0
1.0
1.0
1.0
1.0
1.0
1.0
1.0
1.0
1.0
1.0
1.0
1.0
1.0
1.0
1.0
1.0
1.0
1.0
1.0
1.0
1.0
1.0
1.0
1.0
1.0
1.0
1.0
1.0
1.0
1.0
1.0
1.0
1.0
1.0
1.0
1.0
1.0
1.0
1.0
1.0
1.0
1.0
1.0
1.0
1.0
1.0
1.0
1.0
1.0

VECTORS normals float
-0.00011546154564712197 0.0017058929661288857 -0.0011698143789544702
-0.00022074757725931704 0.003278647316619754 -0.0024635361041873693
-0.0002789688587654382 0.0030833177734166384 -0.0026100273244082928
-0.00040420211735181516 0.00296397740021348 -0.0026479947846382856
-0.00044531151070259506 0.002907834481447935 -0.002595706842839718
-0.0003278949297964573 0.0030078981071710587 -0.002320332685485482
-9.220571519108489e-5 0.0031413461547344923 -0.001997280865907669
0.00013812060933560133 0.0031099149491637945 -0.001909700920805335
0.0002748481638263911 0.003053348045796156 -0.0018580186879262326
0.0003148686664644629 0.003042044350877404 -0.0017416938208043575
0.00028992604347877204 0.0029617538675665855 -0.0017238921718671916
0.00022987906413618475 0.002864621812477708 -0.0017301426269114017
0.00015821750275790691 0.0028138975612819195 -0.0016701162094250321
9.200429485645145e-5 0.002784046111628413 -0.0015802800189703703
4.130187880946323e-5 0.002733839675784111 -0.0015195137821137905
9.696207598608453e-6 0.0026505400892347097 -0.001506009604781866
-4.217552486807108e-6 0.0025469178799539804 -0.0015215291641652584
-5.062076070316834e-6 0.0024481050204485655 -0.0015301803359761834
1.7121039945777738e-6 0.0023722827900201082 -0.0015059973811730742
1.1616368283284828e-5 0.00231922953389585 -0.001449297065846622
2.149965257558506e-5 0.0022749050986021757 -0.001380130648612976
2.9418395570246506e-5 0.0022241126280277967 -0.0013202013215050101
3.442417073529214e-5 0.0021599538158625364 -0.0012793613132089376
3.63165709131863e-5 0.002083292230963707 -0.0012563772033900023
3.5412773286225274e-5 0.001998078776523471 -0.0012456063413992524
3.2357384043280035e-5 0.0019085340900346635 -0.001241020974703133
2.7964591936324723e-5 0.0018185109365731478 -0.0012371190823614597
2.309120463905856e-5 0.0017313407734036448 -0.0012291427701711655
1.854042238846887e-5 0.0016496990574523807 -0.001213270821608603
1.493051149736857e-5 0.0015751487808302045 -0.0011872712057083845
1.2542826880235225e-5 0.0015074968105182052 -0.0011514199431985617
1.1316546078887768e-5 0.0014448995934799314 -0.0011083497665822506
1.0972400559694506e-5 0.0013846303336322308 -0.0010619547683745623
1.1129222002637107e-5 0.001323767239227891 -0.001016407972201705
1.1389166502340231e-5 0.001259676762856543 -0.0009754704078659415
1.1396474292268977e-5 0.0011903290869668126 -0.0009420408750884235
1.0874458894249983e-5 0.0011147200129926205 -0.0009175534942187369
9.644884812587406e-6 0.001034112530760467 -0.000900204642675817
7.633578206878155e-6 0.000952698290348053 -0.0008840078371576965
4.865619757765671e-6 0.0008761168573983014 -0.0008609091746620833
1.4529367717841524e-6 0.0008094349759630859 -0.0008236724534071982
-2.4232347186625702e-6 0.0007560994708910584 -0.0007673751097172499
-6.532860879815417e-6 0.0007189107709564269 -0.0006880178116261959
-1.0618759006320033e-5 0.0007013085996732116 -0.0005806879489682615
-1.4417873899219556e-5 0.0007053778390400112 -0.00044240814168006176
-1.7680962628219277e-5 0.0007287655025720596 -0.0002765388635452837
-2.018977284024004e-5 0.0007638851529918611 -9.391444473294541e-5
-2.1771005776827224e-5 0.000799052941147238 8.877865184331313e-5
-2.2306650862446986e-5 0.0008206389029510319 0.00025207496946677566
-2.1740446754847653e-5 0.000815527222584933 0.000377243006369099
-1.058942416420905e-5 0.0004023832443635911 0.00021405465668067336

CELL_DATA 50

VECTORS liftinglineloading               float
0.13417133688926697 0.05589800700545312 0.09681818634271622
0.19986394047737122 0.09500084072351456 0.16454628109931946
-0.0688684806227684 0.024876950308680534 0.043088141828775406
0.13221639394760132 0.035594213753938675 0.06165098771452904
0.12659300863742828 0.06353665143251419 0.11004871129989624
-0.5662870407104492 0.2086318880319595 0.361361026763916
-1.742052435874939 0.45068797469139094 0.7806144952774048
-3.398815393447876 0.7310155630111694 1.2661560773849487
-5.331389427185059 1.0134761333465576 1.7553921937942507
-7.526711940765381 1.30860435962677 2.266569137573242
-9.692501068115234 1.5713251829147339 2.7216150760650635
-11.600131034851074 1.781025528907776 3.084826707839966
-12.868047714233398 1.891724109649658 3.276562213897705
-14.052573204040526 1.9827862977981567 3.434286594390869
-14.791175842285156 2.0163345336914062 3.4923937320709224
-15.322150230407717 2.01701021194458 3.493564128875733
-15.431008338928223 1.955970287322998 3.3878397941589355
-15.380373954772951 1.9024599790573122 3.2951571941375732
-16.056987762451172 1.8962156772613523 3.284341812133789
-15.96346950531006 1.8238539695739746 3.1590075492858887
-15.963190078735352 1.779110312461853 3.0815093517303467
-15.937175750732422 1.6980762481689453 2.9411542415618896
-16.11069679260254 1.7245235443115234 2.98696231842041
-15.829323768615723 1.6524574756622314 2.86214017868042
-16.64541244506836 1.6607103347778323 2.876434803009033
-17.86103057861328 1.6191260814666748 2.804408550262451
-18.363256454467773 1.5927964448928833 2.7588043212890625
-19.916900634765625 1.6863341331481934 2.920816421508789
-21.303848266601562 1.6930102109909058 2.932379722595215
-22.42714500427246 1.666258692741394 2.88604474067688
-23.448177337646484 1.587687611579895 2.749955654144287
-24.259563446044922 1.4862236976623535 2.5742149353027344
-24.84193229675293 1.4542546272277832 2.518842935562134
-25.191022872924805 1.3295116424560547 2.302781581878662
-25.243736267089844 1.2678292989730835 2.1959447860717773
-25.04557228088379 1.1848098039627075 2.0521507263183594
-24.510616302490234 1.068237066268921 1.85024094581604
-23.608638763427734 0.997499406337738 1.7277196645736694
-22.732624053955078 0.9451482892036438 1.6370447874069214
-21.71616554260254 0.8651590347290039 1.4984993934631348
-20.705852508544922 0.8172746300697327 1.4155611991882324
-18.667490005493164 0.7884483337402344 1.3656325340270996
-15.608742713928223 0.8186814785003661 1.41799795627594
-13.09357738494873 0.798824667930603 1.383604884147644
-10.573629379272461 0.9031445384025574 1.5642921924591064
-8.960598945617676 0.9306303858757019 1.6118991374969482
-7.111831188201904 0.91723895072937 1.5887044668197632
-5.4674224853515625 0.9098389744758606 1.5758873224258423
-3.6235733032226562 0.8886752724647523 1.5392307043075562
-2.018878221511841 0.8679724931716919 1.5033724308013916