# vtk DataFile Version 4.0
 
ASCII
DATASET UNSTRUCTURED_GRID
POINTS 51 float
0.0032294827979058027 -0.003221624530851841 0.006899982690811156
0.0029985597357153893 -0.0068243397399783134 0.008933351375162601
0.0027879877015948296 -0.01018338929861784 0.011236799880862236
0.0024406220763921738 -0.013422466814517975 0.013596084900200367
0.001979583641514182 -0.01655036211013794 0.01599598117172718
0.0015499991131946445 -0.019668467342853546 0.01826087385416031
0.0013237936655059457 -0.022947726771235466 0.020094677805900574
0.00136558769736439 -0.026275400072336197 0.021692663431167603
0.0016000348841771481 -0.029476771131157875 0.02335745096206665
0.0019152839668095112 -0.03268273174762726 0.024862326681613922
0.002229772275313735 -0.03584130480885506 0.026297319680452347
0.002495136111974716 -0.03888419270515442 0.027780722826719284
0.002689530374482274 -0.04185033217072487 0.029245100915431976
0.00281157111749053 -0.04478169232606888 0.03061774931848049
0.0028735389932990074 -0.04767269641160965 0.031908344477415085
0.00289417477324605 -0.05049343779683113 0.033168673515319824
0.0028929314576089382 -0.05321611836552619 0.03444688022136688
0.0028857397846877575 -0.055833108723163605 0.035756196826696396
0.002882807282730937 -0.058360423892736435 0.03706886246800423
0.002889164024963975 -0.06082213297486306 0.03834321349859238
0.002906039822846651 -0.0632338598370552 0.03955215960741043
0.0029321631882339716 -0.06559520214796066 0.04069642722606659
0.002964876824989915 -0.06789528578519821 0.041794825345277786
0.003001011675223708 -0.07012167572975159 0.04286890849471092
0.003037509974092245 -0.07226502150297165 0.04393487796187401
0.0030718371272087097 -0.0743197500705719 0.04500235244631767
0.003102224553003907 -0.07628388702869415 0.046074796468019485
0.0031277663074433804 -0.07815857976675034 0.04715018719434738
0.0031484069768339396 -0.07994764298200607 0.04822193458676338
0.0031648471485823393 -0.08165691047906876 0.04927993565797806
0.0031782679725438356 -0.08329290896654129 0.05031287297606468
0.0031899327877908945 -0.0848611369729042 0.05131123960018157
0.0032009012065827847 -0.08636491000652313 0.05226927623152733
0.003211877541616559 -0.08780496567487717 0.053185708820819855
0.003223159583285451 -0.08917953819036484 0.05406360700726509
0.003234656061977148 -0.09048476815223694 0.05490965023636818
0.0032459525391459465 -0.09171535074710846 0.055733032524585724
0.0032564047724008556 -0.09286566823720932 0.05654346570372582
0.0032652423251420264 -0.0939326211810112 0.05734633281826973
0.003271671943366527 -0.0949179083108902 0.05813868716359139
0.0032749734818935394 -0.09582825005054474 0.05890887975692749
0.0032745779026299715 -0.09667418897151947 0.05963866785168648
0.0032701271120458846 -0.09746845811605453 0.060305994004011154
0.0032615121454000473 -0.09822647273540497 0.06088415533304215
0.0032488894648849964 -0.09896695613861084 0.061340704560279846
0.003232676535844803 -0.09970897436141968 0.061642646789550774
0.0032135276123881336 -0.10046714544296265 0.06176464632153511
0.003192296950146556 -0.10124730318784714 0.06169660761952401
0.0031699857208877806 -0.10204369574785234 0.06144848093390465
0.003147683572024107 -0.10283839702606201 0.06105133146047593
0.0031265048310160637 -0.10360278934240341 0.060554709285497665

CELLS 50 150
2 0 1
2 1 2
2 2 3
2 3 4
2 4 5
2 5 6
2 6 7
2 7 8
2 8 9
2 9 10
2 10 11
2 11 12
2 12 13
2 13 14
2 14 15
2 15 16
2 16 17
2 17 18
2 18 19
2 19 20
2 20 21
2 21 22
2 22 23
2 23 24
2 24 25
2 25 26
2 26 27
2 27 28
2 28 29
2 29 30
2 30 31
2 31 32
2 32 33
2 33 34
2 34 35
2 35 36
2 36 37
2 37 38
2 38 39
2 39 40
2 40 41
2 41 42
2 42 43
2 43 44
2 44 45
2 45 46
2 46 47
2 47 48
2 48 49
2 49 50

CELL_TYPES 50
4
4
4
4
4
4
4
4
4
4
4
4
4
4
4
4
4
4
4
4
4
4
4
4
4
4
4
4
4
4
4
4
4
4
4
4
4
4
4
4
4
4
4
4
4
4
4
4
4
4

POINT_DATA 51

SCALARS zone float
LOOKUP_TABLE default
1.0
1.0
1.0
1.0
1.0
1.0
1.0
1.0
1.0
1.0
1.0
1.0
1.0
1.0
1.0
1.0
1.0
1.0
1.0
1.0
1.0
1.0
1.0
1.0
1.0
1.0
1.0
1.0
1.0
1.0
1.0
1.0
1.0
1.0
1.0
1.0
1.0
1.0
1.0
1.0
1.0
1.0
1.0
1.0
1.0
1.0
1.0
1.0
1.0
1.0
1.0

VECTORS normals float
-0.00011546154564712197 -0.0018013574881479146 0.001016684458591044
-0.00022074757725931704 -0.003480882383883 0.002168408827856183
-0.0002789688587654382 -0.0032990637701004744 0.0023313662968575954
-0.00040420211735181516 -0.0031834864057600503 0.0023795906454324722
-0.00044531151070259506 -0.003123000031337142 0.0023323949426412582
-0.0003278949297964573 -0.003198682563379407 0.0020493476185947657
-9.220571519108489e-5 -0.0033034668304026127 0.0017158942064270377
0.00013812060933560133 -0.0032645221799612045 0.0016313870437443256
0.0002748481638263911 -0.0032036660704761744 0.0015848316252231598
0.0003148686664644629 -0.003182267071679234 0.00146993447560817
0.00028992604347877204 -0.0031007304787635803 0.0014591984217986465
0.00022987906413618475 -0.003004512982442975 0.0014738906174898148
0.00015821750275790691 -0.0029487500432878733 0.0014185135951265693
9.200429485645145e-5 -0.002911182353273034 0.0013316209660843015
4.130187880946323e-5 -0.002855871105566621 0.0012754617491737008
9.696207598608453e-6 -0.002771711442619562 0.001269269036129117
-4.217552486807108e-6 -0.002669836161658168 0.0012937607243657112
-5.062076070316834e-6 -0.002572153229266405 0.0013109911233186722
1.7121039945777738e-6 -0.00249451189301908 0.0012935084523633122
1.1616368283284828e-5 -0.0024367186706513166 0.0012416478712111712
2.149965257558506e-5 -0.0023865345865488052 0.001176607795059681
2.9418395570246506e-5 -0.0023307122755795717 0.0011213334510102868
3.442417073529214e-5 -0.002263238187879324 0.0010862405179068446
3.63165709131863e-5 -0.002184865064918995 0.0010700254933908582
3.5412773286225274e-5 -0.0020990371704101562 0.0010667224414646626
3.2357384043280035e-5 -0.0020094336941838264 0.0010699587874114513
2.7964591936324723e-5 -0.0019194129854440691 0.00107391772326082
2.309120463905856e-5 -0.0018318792572245002 0.00107356917578727
1.854042238846887e-5 -0.0017491650069132447 0.0010648731840774417
1.493051149736857e-5 -0.0016726324101909995 0.0010454700095579028
1.2542826880235225e-5 -0.0016021132469177246 0.0010156515054404736
1.1316546078887768e-5 -0.0015360004035755992 0.0009782009292393923
1.0972400559694506e-5 -0.001471916912123561 0.0009372352506034076
1.1129222002637107e-5 -0.0014073157217353582 0.0008971663773991168
1.1389166502340231e-5 -0.0013399012386798859 0.0008619703585281968
1.1396474292268977e-5 -0.0012679038336500525 0.0008347121183760464
1.0874458894249983e-5 -0.0011904482962563634 0.0008169076754711568
9.644884812587406e-6 -0.001108635333366692 0.0008066502632573246
7.633578206878155e-6 -0.0010261193383485079 0.0007976108463481068
4.865619757765671e-6 -0.0009478161227889359 0.0007812745170667768
1.4529367717841524e-6 -0.0008781426586210727 0.0007499912171624601
-2.4232347186625702e-6 -0.0008201034506782889 0.0006985565996728837
-6.532860879815417e-6 -0.0007761397864669561 0.0006227425183169544
-1.0618759006320033e-5 -0.0007492502336390316 0.0005173552199266851
-1.4417873899219556e-5 -0.0007412520935758948 0.00037924692151136696
-1.7680962628219277e-5 -0.0007500942447222769 0.0002119704440701753
-2.018977284024004e-5 -0.0007691635400988162 2.698009302548599e-5
-2.1771005776827224e-5 -0.0007882746867835522 -0.00015808286843821406
-2.2306650862446986e-5 -0.000795546337030828 -0.00032263912726193666
-2.1740446754847653e-5 -0.0007795449928380549 -0.00044688535854220385
-1.058942416420905e-5 -0.00038219598354771733 -0.00024831012706272304

CELL_DATA 50

VECTORS liftinglineloading               float
0.12428305298089981 -0.04526160657405853 -0.0970638319849968
0.1790923774242401 -0.07419010251760483 -0.1591011881828308
-0.07020032405853271 -0.02348470501601696 -0.05036311224102974
0.1385761797428131 -0.030926501378417015 -0.06632209569215775
0.14384512603282928 -0.051736816763877876 -0.11094996333122253
-0.4875836968421936 -0.1641780585050583 -0.3520810008049011
-1.5751795768737793 -0.3600647747516632 -0.7721613645553589
-3.1210505962371826 -0.5951048135757446 -1.2762064933776855
-4.954423427581787 -0.8328951597213746 -1.7861493825912476
-6.984263896942139 -1.0765150785446167 -2.308594226837158
-9.029831886291504 -1.2965675592422485 -2.7804980278015137
-10.791316986083984 -1.4730663299560547 -3.159000873565674
-11.887115478515625 -1.5649644136428833 -3.356077194213867
-12.803642272949219 -1.6295759677886963 -3.4946370124816895
-13.442241668701172 -1.6438343524932861 -3.5252141952514644
-13.90653896331787 -1.641344666481018 -3.5198748111724854
-13.966995239257812 -1.5727250576019287 -3.372719764709473
-13.882386207580566 -1.5316084623336792 -3.2845451831817627
-14.478707313537598 -1.5261495113372803 -3.272838354110718
-14.371894836425783 -1.4695422649383545 -3.1514437198638916
-14.321931838989256 -1.433152198791504 -3.0734047889709473
-14.354884147644043 -1.372341513633728 -2.942996025085449
-14.716143608093262 -1.4090818166732788 -3.0217857360839844
-14.488945007324219 -1.3532155752182007 -2.90198016166687
-15.374560356140135 -1.3685005903244019 -2.9347589015960693
-16.69820785522461 -1.340309739112854 -2.8743035793304443
-17.22553253173828 -1.3198044300079346 -2.830329656600952
-18.951251983642578 -1.4110667705535889 -3.0260424613952637
-20.448762893676758 -1.422675371170044 -3.0509371757507324
-21.68315315246582 -1.4054920673370361 -3.014087438583374
-22.907442092895508 -1.3421744108200073 -2.8783020973205566
-23.904781341552734 -1.2602115869522095 -2.7025325298309326
-24.765338897705078 -1.2291492223739624 -2.6359188556671143
-25.903350830078125 -1.1199427843093872 -2.4017250537872314
-25.85321044921875 -1.0677837133407593 -2.289869546890259
-25.546762466430664 -0.9979798793792725 -2.1401748657226562
-25.008100509643555 -0.9001879692077638 -1.9304593801498415
-23.992431640625 -0.8411015272140503 -1.8037480115890505
-22.936481475830078 -0.7988108396530151 -1.7130552530288694
-21.869949340820312 -0.7310749888420105 -1.5677953958511353
-20.81749725341797 -0.6911501288414001 -1.4821761846542358
-18.73700714111328 -0.667179524898529 -1.4307711124420166
-15.64199638366699 -0.6930147409439087 -1.4861748218536377
-13.09850311279297 -0.6760479211807251 -1.4497894048690796
-10.557355880737305 -0.76369708776474 -1.6377537250518799
-8.924788475036621 -0.786379873752594 -1.6863970756530762
-7.06229305267334 -0.7742745876312256 -1.6604372262954712
-5.407933712005615 -0.7673587799072266 -1.645606279373169
-3.5655684471130367 -0.7485935688018799 -1.6053640842437744
-1.9193489551544192 -0.7256531715393066 -1.5561681985855103