# vtk DataFile Version 4.0
 
ASCII
DATASET UNSTRUCTURED_GRID
POINTS 51 float
0.0032294827979058027 0.007154509425163269 0.0026079921517521143
0.0029985597357153893 0.009494137950241566 0.006019778084009886
0.0027879877015948296 0.012081582099199295 0.009165287017822266
0.0024406220763921738 0.014714192599058151 0.012186413630843163
0.001979583641514182 0.017377572134137154 0.015093240886926651
0.0015499991131946445 0.019905606284737587 0.018002081662416458
0.0013237936655059457 0.02201823703944683 0.02110903710126877
0.00136558769736439 0.023900168016552925 0.02428477443754673
0.0016000348841771481 0.025837639346718788 0.027328867465257648
0.0019152839668095112 0.02761620469391346 0.030391471460461613
0.002229772275313735 0.029321026057004932 0.033412955701351166
0.002495136111974716 0.0310639888048172 0.03631497919559479
0.002689530374482274 0.03278131037950516 0.039142198860645294
0.00281157111749053 0.034404221922159195 0.0419427715241909
0.0028735389932990074 0.035941872745752335 0.04471029341220856
0.00289417477324605 0.03744325041770935 0.04741045460104942
0.0028929314576089382 0.03895388916134834 0.050011374056339264
0.0028857397846877575 0.04048630967736244 0.05250428989529609
0.002882807282730937 0.04201425239443779 0.05490758270025253
0.002889164024963975 0.04349830374121666 0.05724885314702988
0.002906039822846651 0.04491284489631653 0.05954604223370552
0.0029321631882339716 0.04625856503844261 0.061798665672540665
0.002964876824989915 0.04755324870347977 0.06399426609277725
0.003001011675223708 0.048817288130521774 0.06611857563257217
0.003037509974092245 0.05006600171327591 0.06816085427999496
0.0030718371272087097 0.05130849778652191 0.07011473178863525
0.003102224553003907 0.052548043429851525 0.07197792083024979
0.0031277663074433804 0.05378273874521256 0.07375175505876541
0.0031484069768339396 0.055006328970193856 0.07544060051441193
0.0031648471485823393 0.05620927736163139 0.07705114781856537
0.0031782679725438356 0.057380873709917075 0.07859089970588684
0.0031899327877908945 0.058512117713689804 0.08006614446640015
0.0032009012065827847 0.059597570449113846 0.08148069679737091
0.003211877541616559 0.06063602864742279 0.08283540606498718
0.003223159583285451 0.06163038685917855 0.0841282308101654
0.003234656061977148 0.06258697062730789 0.0853547602891922
0.0032459525391459465 0.06351447105407715 0.08650889247655869
0.0032564047724008556 0.06442207843065262 0.08758419752120972
0.0032652423251420264 0.065314881503582 0.08857711404561996
0.003271671943366527 0.06619009375572205 0.08948959410190582
0.0032749734818935394 0.0670366957783699 0.09032934904098511
0.0032745779026299715 0.0678374394774437 0.09110846370458603
0.0032701271120458846 0.06857144832611084 0.09184154868125916
0.0032615121454000473 0.06921347230672836 0.09254628419876099
0.0032488894648849964 0.06973282247781754 0.09324416518211365
0.003232676535844803 0.07009828835725784 0.09395704418420792
0.0032135276123881336 0.07028590142726898 0.09470169246196747
0.003192296950146556 0.07028611749410629 0.09548481553792953
0.0031699857208877806 0.07010834664106369 0.09629980474710464
0.003147683572024107 0.06978196650743484 0.09712608903646469
0.0031265048310160637 0.0693538561463356 0.09793085604906082

CELLS 50 150
2 0 1
2 1 2
2 2 3
2 3 4
2 4 5
2 5 6
2 6 7
2 7 8
2 8 9
2 9 10
2 10 11
2 11 12
2 12 13
2 13 14
2 14 15
2 15 16
2 16 17
2 17 18
2 18 19
2 19 20
2 20 21
2 21 22
2 22 23
2 23 24
2 24 25
2 25 26
2 26 27
2 27 28
2 28 29
2 29 30
2 30 31
2 31 32
2 32 33
2 33 34
2 34 35
2 35 36
2 36 37
2 37 38
2 38 39
2 39 40
2 40 41
2 41 42
2 42 43
2 43 44
2 44 45
2 45 46
2 46 47
2 47 48
2 48 49
2 49 50

CELL_TYPES 50
4
4
4
4
4
4
4
4
4
4
4
4
4
4
4
4
4
4
4
4
4
4
4
4
4
4
4
4
4
4
4
4
4
4
4
4
4
4
4
4
4
4
4
4
4
4
4
4
4
4

POINT_DATA 51

SCALARS zone float
LOOKUP_TABLE default
1.0
1.0
1.0
1.0
1.0
1.0
1.0
1.0
1.0
1.0
1.0
1.0
1.0
1.0
1.0
1.0
1.0
1.0
1.0
1.0
1.0
1.0
1.0
1.0
1.0
1.0
1.0
1.0
1.0
1.0
1.0
1.0
1.0
1.0
1.0
1.0
1.0
1.0
1.0
1.0
1.0
1.0
1.0
1.0
1.0
1.0
1.0
1.0
1.0
1.0
1.0

VECTORS normals float
-0.00011546154564712197 0.0011698143789544702 0.0017058929661288857
-0.00022074757725931704 0.0024635361041873693 0.003278647316619754
-0.0002789688587654382 0.0026100273244082928 0.0030833177734166384
-0.00040420211735181516 0.0026479947846382856 0.00296397740021348
-0.00044531151070259506 0.002595706842839718 0.002907834481447935
-0.0003278949297964573 0.002320332685485482 0.0030078981071710587
-9.220571519108489e-5 0.001997280865907669 0.0031413461547344923
0.00013812060933560133 0.001909700920805335 0.0031099149491637945
0.0002748481638263911 0.0018580186879262326 0.003053348045796156
0.0003148686664644629 0.0017416938208043575 0.003042044350877404
0.00028992604347877204 0.0017238921718671916 0.0029617538675665855
0.00022987906413618475 0.0017301426269114017 0.002864621812477708
0.00015821750275790691 0.0016701162094250321 0.0028138975612819195
9.200429485645145e-5 0.0015802800189703703 0.002784046111628413
4.130187880946323e-5 0.0015195137821137905 0.002733839675784111
9.696207598608453e-6 0.001506009604781866 0.0026505400892347097
-4.217552486807108e-6 0.0015215291641652584 0.0025469178799539804
-5.062076070316834e-6 0.0015301803359761834 0.0024481050204485655
1.7121039945777738e-6 0.0015059973811730742 0.0023722827900201082
1.1616368283284828e-5 0.001449297065846622 0.00231922953389585
2.149965257558506e-5 0.001380130648612976 0.0022749050986021757
2.9418395570246506e-5 0.0013202013215050101 0.0022241126280277967
3.442417073529214e-5 0.0012793613132089376 0.0021599538158625364
3.63165709131863e-5 0.0012563772033900023 0.002083292230963707
3.5412773286225274e-5 0.0012456063413992524 0.001998078776523471
3.2357384043280035e-5 0.001241020974703133 0.0019085340900346635
2.7964591936324723e-5 0.0012371190823614597 0.0018185109365731478
2.309120463905856e-5 0.0012291427701711655 0.0017313407734036448
1.854042238846887e-5 0.001213270821608603 0.0016496990574523807
1.493051149736857e-5 0.0011872712057083845 0.0015751487808302045
1.2542826880235225e-5 0.0011514199431985617 0.0015074968105182052
1.1316546078887768e-5 0.0011083497665822506 0.0014448995934799314
1.0972400559694506e-5 0.0010619547683745623 0.0013846303336322308
1.1129222002637107e-5 0.001016407972201705 0.001323767239227891
1.1389166502340231e-5 0.0009754704078659415 0.001259676762856543
1.1396474292268977e-5 0.0009420408750884235 0.0011903290869668126
1.0874458894249983e-5 0.0009175534942187369 0.0011147200129926205
9.644884812587406e-6 0.000900204642675817 0.001034112530760467
7.633578206878155e-6 0.0008840078371576965 0.000952698290348053
4.865619757765671e-6 0.0008609091746620833 0.0008761168573983014
1.4529367717841524e-6 0.0008236724534071982 0.0008094349759630859
-2.4232347186625702e-6 0.0007673751097172499 0.0007560994708910584
-6.532860879815417e-6 0.0006880178116261959 0.0007189107709564269
-1.0618759006320033e-5 0.0005806879489682615 0.0007013085996732116
-1.4417873899219556e-5 0.00044240814168006176 0.0007053778390400112
-1.7680962628219277e-5 0.0002765388635452837 0.0007287655025720596
-2.018977284024004e-5 9.391444473294541e-5 0.0007638851529918611
-2.1771005776827224e-5 -8.877865184331313e-5 0.000799052941147238
-2.2306650862446986e-5 -0.00025207496946677566 0.0008206389029510319
-2.1740446754847653e-5 -0.000377243006369099 0.000815527222584933
-1.058942416420905e-5 -0.00021405465668067336 0.0004023832443635911

CELL_DATA 50

VECTORS liftinglineloading               float
0.12540654838085175 -0.0928480476140976 0.05360584706068038
0.18209391832351685 -0.1534549742937088 0.08859727531671524
-0.06905307620763779 -0.04631669819355011 0.02674095705151558
0.13461507856845856 -0.06211433187127113 0.035861726850271225
0.1443886160850525 -0.1035067066550255 0.05975962430238724
-0.48301202058792114 -0.33251816034317017 0.19197945296764374
-1.5687785148620605 -0.7322475910186768 0.4227633476257325
-3.1139519214630127 -1.2107070684432983 0.6990020275115967
-4.946243762969971 -1.6945759057998655 0.978363871574402
-6.987560272216797 -2.192451238632202 1.2658123970031738
-9.049818992614746 -2.643096446990967 1.5259923934936523
-10.8388032913208 -3.004462480545044 1.7346272468566895
-12.0090913772583 -3.1967053413391113 1.845618724822998
-13.112582206726076 -3.3465795516967773 1.9321485757827759
-13.85452079772949 -3.393145799636841 1.9590336084365845
-14.38863468170166 -3.3954935073852544 1.9603890180587769
-14.485239028930666 -3.271502256393433 1.888802766799927
-14.399652481079102 -3.182568073272705 1.8374564647674558
-14.977483749389648 -3.166179895401001 1.8279948234558105
-14.782625198364258 -3.037752389907837 1.7538472414016726
-14.609864234924315 -2.9495601654052734 1.7029292583465576
-14.482276916503908 -2.8091211318969727 1.6218469142913818
-15.49690246582031 -2.93210768699646 1.6928530931472778
-15.219063758850098 -2.810035467147827 1.6223746538162231
-16.00951385498047 -2.827646255493164 1.632542371749878
-17.182313919067383 -2.757485866546631 1.592035174369812
-17.948118209838867 -2.7279577255249023 1.5749871730804443
-19.541521072387695 -2.8961093425750732 1.6720695495605469
-20.93641471862793 -2.9109132289886475 1.6806164979934695
-21.999267578125 -2.8670401573181152 1.6552863121032717
-22.975242614746094 -2.7330715656280518 1.577939510345459
-23.729442596435547 -2.5636706352233887 1.4801360368728638
-24.25337791442871 -2.5081429481506348 1.4480769634246826
-24.547222137451172 -2.3057801723480225 1.3312429189682007
-24.537446975708008 -2.2031960487365723 1.2720158100128174
-24.294424057006836 -2.063591957092285 1.1914154291152954
-24.442235946655273 -1.8431564569473269 1.064146876335144
-23.439712524414062 -1.7237217426300047 0.995191216468811
-22.63121223449707 -1.6322703361511228 0.9423917531967162
-21.539216995239258 -1.4966884851455688 0.8641135096549988
-20.47383689880371 -1.4148310422897339 0.8168530464172363
-18.412492752075195 -1.364568829536438 0.7878341674804688
-15.351179122924805 -1.4130945205688477 0.8158504962921143
-12.850041389465332 -1.3770291805267334 0.7950281500816345
-10.355337142944336 -1.5510746240615845 0.8955133557319641
-8.746331214904785 -1.5971988439559937 0.9221431612968446
-6.921882629394531 -1.5722664594650269 0.9077485203742981
-5.303196430206299 -1.5591776371002197 0.900191605091095
-3.5005500316619873 -1.5218560695648193 0.8786439895629883
-1.9065580368041992 -1.48017156124115 0.8545774221420287