# vtk DataFile Version 4.0
 
ASCII
DATASET UNSTRUCTURED_GRID
POINTS 51 float
0.0032294827979058027 -0.006899982690811156 -0.003221624530851841
0.0029985597357153893 -0.008933351375162601 -0.0068243397399783134
0.0027879877015948296 -0.011236799880862236 -0.01018338929861784
0.0024406220763921738 -0.013596084900200367 -0.013422466814517975
0.001979583641514182 -0.01599598117172718 -0.01655036211013794
0.0015499991131946445 -0.01826087385416031 -0.019668467342853546
0.0013237936655059457 -0.020094677805900574 -0.022947726771235466
0.00136558769736439 -0.021692663431167603 -0.026275400072336197
0.0016000348841771481 -0.02335745096206665 -0.029476771131157875
0.0019152839668095112 -0.024862326681613922 -0.03268273174762726
0.002229772275313735 -0.026297319680452347 -0.03584130480885506
0.002495136111974716 -0.027780722826719284 -0.03888419270515442
0.002689530374482274 -0.029245100915431976 -0.04185033217072487
0.00281157111749053 -0.03061774931848049 -0.04478169232606888
0.0028735389932990074 -0.031908344477415085 -0.04767269641160965
0.00289417477324605 -0.033168673515319824 -0.05049343779683113
0.0028929314576089382 -0.03444688022136688 -0.05321611836552619
0.0028857397846877575 -0.035756196826696396 -0.055833108723163605
0.002882807282730937 -0.03706886246800423 -0.058360423892736435
0.002889164024963975 -0.03834321349859238 -0.06082213297486306
0.002906039822846651 -0.03955215960741043 -0.0632338598370552
0.0029321631882339716 -0.04069642722606659 -0.06559520214796066
0.002964876824989915 -0.041794825345277786 -0.06789528578519821
0.003001011675223708 -0.04286890849471092 -0.07012167572975159
0.003037509974092245 -0.04393487796187401 -0.07226502150297165
0.0030718371272087097 -0.04500235244631767 -0.0743197500705719
0.003102224553003907 -0.046074796468019485 -0.07628388702869415
0.0031277663074433804 -0.04715018719434738 -0.07815857976675034
0.0031484069768339396 -0.04822193458676338 -0.07994764298200607
0.0031648471485823393 -0.04927993565797806 -0.08165691047906876
0.0031782679725438356 -0.05031287297606468 -0.08329290896654129
0.0031899327877908945 -0.05131123960018157 -0.0848611369729042
0.0032009012065827847 -0.05226927623152733 -0.08636491000652313
0.003211877541616559 -0.053185708820819855 -0.08780496567487717
0.003223159583285451 -0.05406360700726509 -0.08917953819036484
0.003234656061977148 -0.05490965023636818 -0.09048476815223694
0.0032459525391459465 -0.055733032524585724 -0.09171535074710846
0.0032564047724008556 -0.05654346570372582 -0.09286566823720932
0.0032652423251420264 -0.05734633281826973 -0.0939326211810112
0.003271671943366527 -0.05813868716359139 -0.0949179083108902
0.0032749734818935394 -0.05890887975692749 -0.09582825005054474
0.0032745779026299715 -0.05963866785168648 -0.09667418897151947
0.0032701271120458846 -0.060305994004011154 -0.09746845811605453
0.0032615121454000473 -0.06088415533304215 -0.09822647273540497
0.0032488894648849964 -0.061340704560279846 -0.09896695613861084
0.003232676535844803 -0.061642646789550774 -0.09970897436141968
0.0032135276123881336 -0.06176464632153511 -0.10046714544296265
0.003192296950146556 -0.06169660761952401 -0.10124730318784714
0.0031699857208877806 -0.06144848093390465 -0.10204369574785234
0.003147683572024107 -0.06105133146047593 -0.10283839702606201
0.0031265048310160637 -0.060554709285497665 -0.10360278934240341

CELLS 50 150
2 0 1
2 1 2
2 2 3
2 3 4
2 4 5
2 5 6
2 6 7
2 7 8
2 8 9
2 9 10
2 10 11
2 11 12
2 12 13
2 13 14
2 14 15
2 15 16
2 16 17
2 17 18
2 18 19
2 19 20
2 20 21
2 21 22
2 22 23
2 23 24
2 24 25
2 25 26
2 26 27
2 27 28
2 28 29
2 29 30
2 30 31
2 31 32
2 32 33
2 33 34
2 34 35
2 35 36
2 36 37
2 37 38
2 38 39
2 39 40
2 40 41
2 41 42
2 42 43
2 43 44
2 44 45
2 45 46
2 46 47
2 47 48
2 48 49
2 49 50

CELL_TYPES 50
4
4
4
4
4
4
4
4
4
4
4
4
4
4
4
4
4
4
4
4
4
4
4
4
4
4
4
4
4
4
4
4
4
4
4
4
4
4
4
4
4
4
4
4
4
4
4
4
4
4

POINT_DATA 51

SCALARS zone float
LOOKUP_TABLE default
1.0
1.0
1.0
1.0
1.0
1.0
1.0
1.0
1.0
1.0
1.0
1.0
1.0
1.0
1.0
1.0
1.0
1.0
1.0
1.0
1.0
1.0
1.0
1.0
1.0
1.0
1.0
1.0
1.0
1.0
1.0
1.0
1.0
1.0
1.0
1.0
1.0
1.0
1.0
1.0
1.0
1.0
1.0
1.0
1.0
1.0
1.0
1.0
1.0
1.0
1.0

VECTORS normals float
-0.00011546154564712197 -0.001016684458591044 -0.0018013574881479146
-0.00022074757725931704 -0.002168408827856183 -0.003480882383883
-0.0002789688587654382 -0.0023313662968575954 -0.0032990637701004744
-0.00040420211735181516 -0.0023795906454324722 -0.0031834864057600503
-0.00044531151070259506 -0.0023323949426412582 -0.003123000031337142
-0.0003278949297964573 -0.0020493476185947657 -0.003198682563379407
-9.220571519108489e-5 -0.0017158942064270377 -0.0033034668304026127
0.00013812060933560133 -0.0016313870437443256 -0.0032645221799612045
0.0002748481638263911 -0.0015848316252231598 -0.0032036660704761744
0.0003148686664644629 -0.00146993447560817 -0.003182267071679234
0.00028992604347877204 -0.0014591984217986465 -0.0031007304787635803
0.00022987906413618475 -0.0014738906174898148 -0.003004512982442975
0.00015821750275790691 -0.0014185135951265693 -0.0029487500432878733
9.200429485645145e-5 -0.0013316209660843015 -0.002911182353273034
4.130187880946323e-5 -0.0012754617491737008 -0.002855871105566621
9.696207598608453e-6 -0.001269269036129117 -0.002771711442619562
-4.217552486807108e-6 -0.0012937607243657112 -0.002669836161658168
-5.062076070316834e-6 -0.0013109911233186722 -0.002572153229266405
1.7121039945777738e-6 -0.0012935084523633122 -0.00249451189301908
1.1616368283284828e-5 -0.0012416478712111712 -0.0024367186706513166
2.149965257558506e-5 -0.001176607795059681 -0.0023865345865488052
2.9418395570246506e-5 -0.0011213334510102868 -0.0023307122755795717
3.442417073529214e-5 -0.0010862405179068446 -0.002263238187879324
3.63165709131863e-5 -0.0010700254933908582 -0.002184865064918995
3.5412773286225274e-5 -0.0010667224414646626 -0.0020990371704101562
3.2357384043280035e-5 -0.0010699587874114513 -0.0020094336941838264
2.7964591936324723e-5 -0.00107391772326082 -0.0019194129854440691
2.309120463905856e-5 -0.00107356917578727 -0.0018318792572245002
1.854042238846887e-5 -0.0010648731840774417 -0.0017491650069132447
1.493051149736857e-5 -0.0010454700095579028 -0.0016726324101909995
1.2542826880235225e-5 -0.0010156515054404736 -0.0016021132469177246
1.1316546078887768e-5 -0.0009782009292393923 -0.0015360004035755992
1.0972400559694506e-5 -0.0009372352506034076 -0.001471916912123561
1.1129222002637107e-5 -0.0008971663773991168 -0.0014073157217353582
1.1389166502340231e-5 -0.0008619703585281968 -0.0013399012386798859
1.1396474292268977e-5 -0.0008347121183760464 -0.0012679038336500525
1.0874458894249983e-5 -0.0008169076754711568 -0.0011904482962563634
9.644884812587406e-6 -0.0008066502632573246 -0.001108635333366692
7.633578206878155e-6 -0.0007976108463481068 -0.0010261193383485079
4.865619757765671e-6 -0.0007812745170667768 -0.0009478161227889359
1.4529367717841524e-6 -0.0007499912171624601 -0.0008781426586210727
-2.4232347186625702e-6 -0.0006985565996728837 -0.0008201034506782889
-6.532860879815417e-6 -0.0006227425183169544 -0.0007761397864669561
-1.0618759006320033e-5 -0.0005173552199266851 -0.0007492502336390316
-1.4417873899219556e-5 -0.00037924692151136696 -0.0007412520935758948
-1.7680962628219277e-5 -0.0002119704440701753 -0.0007500942447222769
-2.018977284024004e-5 -2.698009302548599e-5 -0.0007691635400988162
-2.1771005776827224e-5 0.00015808286843821406 -0.0007882746867835522
-2.2306650862446986e-5 0.00032263912726193666 -0.000795546337030828
-2.1740446754847653e-5 0.00044688535854220385 -0.0007795449928380549
-1.058942416420905e-5 0.00024831012706272304 -0.00038219598354771733

CELL_DATA 50

VECTORS liftinglineloading               float
0.18379317224025726 0.12805338203907013 -0.05971226841211319
0.2742680311203003 0.22095279395580292 -0.10303198546171188
-0.19954799115657806 0.11286940425634383 -0.05263186991214752
0.07484384626150131 0.0548660196363926 -0.025584444403648376
0.281648725271225 0.06084154546260834 -0.028370877727866176
-0.3110927641391754 0.29118818044662476 -0.13578328490257263
-1.4445732831954956 0.7362759709358215 -0.34333112835884094
-3.0807721614837646 1.276719093322754 -0.5953438878059387
-5.026644706726074 1.8115673065185547 -0.8447476625442504
-7.247682571411133 2.363921880722046 -1.102314829826355
-9.451129913330078 2.853947162628174 -1.330817461013794
-11.356341361999512 3.239894390106201 -1.5107876062393188
-12.620440483093262 3.4426751136779785 -1.6053457260131836
-13.62503910064697 3.5894865989685054 -1.6738049983978274
-14.382702827453613 3.6389949321746826 -1.6968911886215208
-14.958399772644041 3.6411478519439693 -1.6978951692581177
-15.129819869995117 3.523578405380249 -1.6430715322494507
-15.163992881774902 3.436876058578491 -1.6026415824890137
-15.945074081420897 3.4356493949890137 -1.602069616317749
-15.97131633758545 3.3151683807373042 -1.5458884239196777
-16.159936904907227 3.2504241466522212 -1.5156975984573364
-16.23447036743164 3.1095805168151855 -1.4500211477279663
-16.729616165161133 3.175431251525879 -1.4807279109954834
-16.636022567749023 3.053825616836548 -1.4240223169326782
-17.603330612182617 3.0687875747680664 -1.4309991598129272
-18.893310546875 2.991204023361206 -1.3948214054107666
-19.510225296020508 2.946624994277954 -1.374033808708191
-20.987104415893555 3.0929431915283203 -1.442263126373291
-22.375158309936523 3.094519853591919 -1.4429982900619507
-23.383440017700195 3.033355951309204 -1.4144771099090576
-23.939762115478516 2.8804666996002197 -1.3431836366653442
-24.590316772460938 2.691793441772461 -1.2552039623260498
-24.968090057373047 2.6350932121276855 -1.2287641763687134
-25.12303924560547 2.4108355045318604 -1.124191164970398
-24.994415283203125 2.3043742179870605 -1.074547290802002
-24.637765884399414 2.1595802307128906 -1.0070288181304932
-24.064992904663086 1.9459580183029175 -0.9074150919914244
-23.09454917907715 1.820052981376648 -0.8487046360969545
-22.043336868286133 1.7278252840042116 -0.8056981563568115
-21.01152801513672 1.5882363319396973 -0.7406067848205566
-19.98424530029297 1.497846245765686 -0.6984571814537048
-17.981876373291016 1.440506935119629 -0.6717193722724915
-14.973008155822754 1.4819204807281494 -0.6910308599472046
-12.53036117553711 1.4407703876495361 -0.6718422770500183
-10.09182357788086 1.6125463247299194 -0.7519426941871643
-8.494921684265137 1.6590710878372192 -0.7736375331878662
-6.703731060028076 1.6300820112228394 -0.7601197361946106
-5.115227699279785 1.6155701875686646 -0.7533527612686157
-3.3613641262054443 1.5745723247528076 -0.7342351078987122
-1.8000559806823733 1.5246559381484985 -0.7109587788581848