# vtk DataFile Version 4.0
 
ASCII
DATASET UNSTRUCTURED_GRID
POINTS 51 float
0.0032294827979058027 -3.724578164110426e-6 0.007615025620907545
0.0029985597357153893 -0.0024095545522868633 0.010980457067489624
0.0027879877015948296 -0.004480408038944006 0.014487685635685919
0.0024406220763921738 -0.006418932694941758 0.017994817346334457
0.001979583641514182 -0.00823952816426754 0.021491767838597298
0.0015499991131946445 -0.01010830607265234 0.024862226098775864
0.0013237936655059457 -0.012305326759815216 0.027910090982913967
0.00136558769736439 -0.014645884744822977 0.030764693394303325
0.0016000348841771481 -0.01684374175965786 0.03362646326422691
0.0019152839668095112 -0.019113343209028244 0.036345239728689194
0.002229772275313735 -0.02136952616274357 0.03898065537214279
0.002495136111974716 -0.023500407114624977 0.04161105677485466
0.002689530374482274 -0.02556976675987244 0.04419177770614624
0.00281157111749053 -0.02764637768268585 0.04667466878890991
0.0028735389932990074 -0.0297210868448019 0.04906613379716873
0.00289417477324605 -0.031744908541440964 0.05140047520399093
0.0028929314576089382 -0.03367230296134949 0.05370958149433136
0.0028857397846877575 -0.03549075871706009 0.056002210825681686
0.002882807282730937 -0.03722652792930603 0.058259982615709305
0.002889164024963975 -0.038919031620025635 0.06045529618859291
0.002906039822846651 -0.04059387743473053 0.06257021427154541
0.0029321631882339716 -0.042250387370586395 0.0646052211523056
0.002964876824989915 -0.04387076944112778 0.06657276302576065
0.003001011675223708 -0.04543463885784149 0.06848713010549545
0.003037509974092245 -0.04692666605114937 0.07035903632640839
0.0030718371272087097 -0.04833775386214256 0.07219486683607101
0.003102224553003907 -0.049664631485939026 0.07399690896272659
0.0031277663074433804 -0.05090919882059097 0.07576382905244827
0.0031484069768339396 -0.05207770317792892 0.07749124616384506
0.0031648471485823393 -0.05317969247698784 0.07917249202728271
0.0031782679725438356 -0.054225873202085495 0.08080005645751953
0.0031899327877908945 -0.05522524192929268 0.08236764371395111
0.0032009012065827847 -0.05618324130773545 0.08387143909931183
0.003211877541616559 -0.0571010746061802 0.08531060814857483
0.003223159583285451 -0.05797584354877471 0.08668716996908188
0.003234656061977148 -0.058801230043172836 0.08800555765628815
0.0032459525391459465 -0.05956853926181793 0.08927185833454132
0.0032564047724008556 -0.0602685771882534 0.09049250930547714
0.0032652423251420264 -0.060896258801221854 0.09167106449604034
0.003271671943366527 -0.06145436689257621 0.09280558675527573
0.0032749734818935394 -0.06195392087101936 0.09388834983110428
0.0032745779026299715 -0.06241218373179436 0.09490726888179779
0.0032701271120458846 -0.06285000592470169 0.09584774076938629
0.0032615121454000473 -0.06329265981912613 0.09669208526611328
0.0032488894648849964 -0.0637708231806755 0.09741879999637604
0.003232676535844803 -0.06431571394205093 0.09800604730844498
0.0032135276123881336 -0.06495129317045212 0.09843703359365463
0.003192296950146556 -0.06568710505962372 0.09870507568120956
0.0031699857208877806 -0.06651374697685242 0.09881676733493805
0.003147683572024107 -0.06740183383226395 0.0987926796078682
0.0031265048310160637 -0.06830448657274246 0.09866563230752945

CELLS 50 150
2 0 1
2 1 2
2 2 3
2 3 4
2 4 5
2 5 6
2 6 7
2 7 8
2 8 9
2 9 10
2 10 11
2 11 12
2 12 13
2 13 14
2 14 15
2 15 16
2 16 17
2 17 18
2 18 19
2 19 20
2 20 21
2 21 22
2 22 23
2 23 24
2 24 25
2 25 26
2 26 27
2 27 28
2 28 29
2 29 30
2 30 31
2 31 32
2 32 33
2 33 34
2 34 35
2 35 36
2 36 37
2 37 38
2 38 39
2 39 40
2 40 41
2 41 42
2 42 43
2 43 44
2 44 45
2 45 46
2 46 47
2 47 48
2 48 49
2 49 50

CELL_TYPES 50
4
4
4
4
4
4
4
4
4
4
4
4
4
4
4
4
4
4
4
4
4
4
4
4
4
4
4
4
4
4
4
4
4
4
4
4
4
4
4
4
4
4
4
4
4
4
4
4
4
4

POINT_DATA 51

SCALARS zone float
LOOKUP_TABLE default
1.0
1.0
1.0
1.0
1.0
1.0
1.0
1.0
1.0
1.0
1.0
1.0
1.0
1.0
1.0
1.0
1.0
1.0
1.0
1.0
1.0
1.0
1.0
1.0
1.0
1.0
1.0
1.0
1.0
1.0
1.0
1.0
1.0
1.0
1.0
1.0
1.0
1.0
1.0
1.0
1.0
1.0
1.0
1.0
1.0
1.0
1.0
1.0
1.0
1.0
1.0

VECTORS normals float
-0.00011546154564712197 -0.0012029149802401662 0.0016827156068757176
-0.00022074757725931704 -0.0022383416071534157 0.0034363302402198315
-0.0002789688587654382 -0.002004689071327448 0.0035071801394224163
-0.00040420211735181516 -0.0018795600626617668 0.0035020411014556885
-0.00044531151070259506 -0.0018446865724399684 0.003433704609051347
-0.0003278949297964573 -0.0020328990649431944 0.0032091613393276934
-9.220571519108489e-5 -0.002268789568915963 0.002951233647763729
0.00013812060933560133 -0.002269207965582609 0.0028581854421645403
0.0002748481638263911 -0.002233728766441345 0.0027902729343622923
0.0003148686664644629 -0.0022628922015428543 0.0026770972181111574
0.00028992604347877204 -0.00219353218562901 0.0026329082902520895
0.00022987906413618475 -0.002100120298564434 0.002605560701340437
0.00015821750275790691 -0.0020729852840304375 0.0025318055413663387
9.200429485645145e-5 -0.002075660042464733 0.0024371773470193148
4.130187880946323e-5 -0.002049264730885625 0.0023629041388630867
9.696207598608453e-6 -0.0019756073597818613 0.0023217243142426014
-4.217552486807108e-6 -0.001872926368378103 0.0023008668795228004
-5.062076070316834e-6 -0.0017771137645468114 0.002275200327858329
1.7121039945777738e-6 -0.0017141352873295548 0.0022265431471168995
1.1616368283284828e-5 -0.001683674054220319 0.002155116992071271
2.149965257558506e-5 -0.0016656790394335985 0.002074961783364415
2.9418395570246506e-5 -0.0016384468181058764 0.0020012748427689075
3.442417073529214e-5 -0.0015921253943815827 0.0019409541273489592
3.63165709131863e-5 -0.0015279479557648301 0.0018931363010779023
3.5412773286225274e-5 -0.0014515573857352138 0.0018538702279329302
3.2357384043280035e-5 -0.001368981203995645 0.0018189353868365286
2.7964591936324723e-5 -0.0012857216643169522 0.001784479012712836
2.309120463905856e-5 -0.0012065365444868803 0.001747169764712453
1.854042238846887e-5 -0.0011352469446137547 0.0017043319530785082
1.493051149736857e-5 -0.0010740850120782852 0.0016544025857001543
1.2542826880235225e-5 -0.0010227748425677419 0.001597575144842267
1.1316546078887768e-5 -0.0009786835871636868 0.0015356928342953324
1.0972400559694506e-5 -0.000937917036935687 0.0014714825665578246
1.1129222002637107e-5 -0.0008963023428805172 0.001407866133376956
1.1389166502340231e-5 -0.0008500784751959145 0.0013474771985784173
1.1396474292268977e-5 -0.0007963464595377446 0.0012923453468829393
1.0874458894249983e-5 -0.0007336724083870649 0.001243474893271923
9.644884812587406e-6 -0.0006638597697019577 0.00119960296433419
7.633578206878155e-6 -0.0005928950849920511 0.0011565376771613955
4.865619757765671e-6 -0.0005288322572596371 0.0011086396407335997
1.4529367717841524e-6 -0.0004789075173903256 0.0010508419945836067
-2.4232347186625702e-6 -0.00044804334174841637 0.0009796980302780867
-6.532860879815417e-6 -0.0004402391787152738 0.0008924072026275097
-1.0618759006320033e-5 -0.000460407551145181 0.0007855298463255167
-1.4417873899219556e-5 -0.0005115258973091841 0.0006569810793735087
-1.7680962628219277e-5 -0.0005902336561121047 0.0005091140046715736
-2.018977284024004e-5 -0.0006856966065242887 0.00034951482666656375
-2.1771005776827224e-5 -0.0007812282419763505 0.0001898675545817241
-2.2306650862446986e-5 -0.0008573630475439131 4.380205427878536e-5
-2.1740446754847653e-5 -0.0008953696233220398 -7.556574564659968e-5
-1.058942416420905e-5 -0.000451327592600137 -6.352239870466292e-5

CELL_DATA 50

VECTORS liftinglineloading               float
0.12666615843772888 -0.08363386988639832 -0.07017714530229568
0.1818397343158722 -0.13645146787166595 -0.1144963800907135
-0.07080324739217758 -0.04268155246973038 -0.0358140729367733
0.1371549367904663 -0.05608927458524705 -0.047064490616321564
0.16226041316986084 -0.08849471807479858 -0.07425589114427567
-0.492932140827179 -0.300247460603714 -0.25193753838539124
-1.5845355987548828 -0.656715989112854 -0.5510501265525818
-3.1342756748199463 -1.0844379663467407 -0.9099515080451965
-4.972095966339111 -1.517404317855835 -1.273253321647644
-6.957144737243652 -1.9543164968490598 -1.6398662328720093
-9.004362106323242 -2.355067729949951 -1.976136565208435
-10.771904945373535 -2.677976131439209 -2.24708890914917
-11.896244049072266 -2.8476099967956543 -2.3894286155700684
-12.793656349182129 -2.962968111038208 -2.4862253665924072
-13.788195610046387 -3.025064468383789 -2.538330316543579
-14.345738410949707 -3.029170036315918 -2.5417754650115967
-14.461061477661133 -2.914705276489258 -2.445728063583374
-14.39318561553955 -2.838419198989868 -2.38171648979187
-14.993590354919434 -2.825817823410034 -2.371142625808716
-14.827284812927246 -2.7141377925872803 -2.2774319648742676
-14.458850860595705 -2.617048501968384 -2.1959645748138428
-14.529585838317871 -2.508662700653076 -2.105017900466919
-14.863583564758299 -2.572427272796631 -2.158522844314575
-14.622544288635252 -2.4691922664642334 -2.0718982219696045
-15.513853073120115 -2.4963653087615967 -2.0946993827819824
-16.912521362304688 -2.4476819038391113 -2.0538489818573
-17.467180252075195 -2.41090989112854 -2.022993564605713
-19.19529914855957 -2.5743725299835205 -2.1601550579071045
-20.687442779541016 -2.593371868133545 -2.1760973930358887
-21.88616371154785 -2.5594546794891357 -2.1476376056671143
-23.04043197631836 -2.4422523975372314 -2.049293041229248
-23.94985580444336 -2.291997194290161 -1.9232139587402342
-24.60807228088379 -2.241551160812378 -1.880884647369385
-25.0118408203125 -2.0556485652923584 -1.7248940467834473
-25.0927734375 -1.9605001211166382 -1.6450549364089966
-24.912649154663086 -1.8325579166412354 -1.5376986265182495
-24.47981834411621 -1.6485456228256226 -1.3832941055297852
-23.5870418548584 -1.5391172170639038 -1.2914726734161377
-22.653650283813477 -1.4590940475463867 -1.2243252992630005
-21.643604278564453 -1.3366378545761108 -1.1215722560882568
-20.634450912475586 -1.2617459297180176 -1.0587306022644043
-18.60141944885254 -1.2160569429397583 -1.020392894744873
-15.540848731994629 -1.259881615638733 -1.0571660995483398
-13.180591583251953 -1.2317475080490112 -1.033558964729309
-10.61900806427002 -1.3914426565170288 -1.167559027671814
-8.97236156463623 -1.4324058294296265 -1.2019312381744385
-7.093334674835205 -1.409866452217102 -1.183018445968628
-5.424201011657715 -1.3966679573059082 -1.1719435453414917
-3.5700342655181885 -1.3617584705352783 -1.142651081085205
-1.9171726703643797 -1.319130778312683 -1.106882095336914