# vtk DataFile Version 4.0
 
ASCII
DATASET UNSTRUCTURED_GRID
POINTS 51 float
0.0032294827979058027 -0.00715705705806613 0.0026009920984506607
0.0029985597357153893 -0.011142370291054249 0.0014912968035787344
0.0027879877015948296 -0.015146360732614994 0.0007448741234838963
0.0024406220763921738 -0.01910500042140484 0.00012276615598239005
0.001979583641514182 -0.02301374077796936 -0.00039200609899125993
0.0015499991131946445 -0.026820095255970955 -0.0009953182889148593
0.0013237936655059457 -0.03043557517230511 -0.002017411170527339
0.00136558769736439 -0.03391854465007782 -0.0032404852099716663
0.0016000348841771481 -0.037359438836574554 -0.004327013157308102
0.0019152839668095112 -0.040690500289201736 -0.005529862828552723
0.002229772275313735 -0.04393864423036575 -0.006748616695404054
0.002495136111974716 -0.04713921621441841 -0.007851339876651764
0.002689530374482274 -0.05027206242084503 -0.008913244120776653
0.00281157111749053 -0.053315456956624985 -0.010015420615673065
0.0028735389932990074 -0.05627229437232018 -0.011147080920636654
0.00289417477324605 -0.05915804579854012 -0.01225045695900917
0.0028929314576089382 -0.06198710203170777 -0.01327185519039631
0.0028857397846877575 -0.06476341933012009 -0.01419652160257101
0.002882807282730937 -0.06747869402170181 -0.015055407769978045
0.002889164024963975 -0.07012049108743668 -0.015894996002316475
0.002906039822846651 -0.07268069684505463 -0.016745492815971375
0.0029321631882339716 -0.07515953481197357 -0.017606092616915703
0.002964876824989915 -0.07756262272596359 -0.018455812707543373
0.003001011675223708 -0.07989641278982162 -0.01927061751484871
0.003037509974092245 -0.08216573297977448 -0.020032435655593872
0.0030718371272087097 -0.08437346667051315 -0.020730530843138695
0.003102224553003907 -0.08652064949274063 -0.021361052989959717
0.0031277663074433804 -0.08860667794942856 -0.021926242858171463
0.0031484069768339396 -0.09062957763671875 -0.022433465346693993
0.0031648471485823393 -0.09258633106946945 -0.02289397642016411
0.0031782679725438356 -0.09447355568408966 -0.023320406675338745
0.0031899327877908945 -0.09628840535879135 -0.023723360151052475
0.0032009012065827847 -0.09802917391061783 -0.0241092536598444
0.003211877541616559 -0.09969546645879745 -0.024479513987898827
0.003223159583285451 -0.10128819942474365 -0.024830713868141174
0.003234656061977148 -0.10280937701463698 -0.025155410170555115
0.0032459525391459465 -0.10426174849271774 -0.025443339720368385
0.0032564047724008556 -0.10564821213483809 -0.025683674961328506
0.0032652423251420264 -0.1069703698158264 -0.025870412588119503
0.003271671943366527 -0.10822735726833344 -0.02600683644413948
0.0032749734818935394 -0.10941567271947861 -0.02610593661665916
0.0032745779026299715 -0.11052988469600677 -0.026188069954514507
0.0032701271120458846 -0.11156338453292847 -0.026277830824255943
0.0032615121454000473 -0.11250820010900497 -0.026405004784464836
0.0032488894648849964 -0.1133546382188797 -0.026605779305100438
0.003232676535844803 -0.1140928268432617 -0.026916958391666412
0.0032135276123881336 -0.11471520364284515 -0.027366802096366886
0.003192296950146556 -0.11521874368190765 -0.0279665645211935
0.0031699857208877806 -0.11560642719268797 -0.028705153614282608
0.003147683572024107 -0.11588753759860992 -0.029547916725277897
0.0031265048310160637 -0.11607687920331955 -0.030439587309956547

CELLS 50 150
2 0 1
2 1 2
2 2 3
2 3 4
2 4 5
2 5 6
2 6 7
2 7 8
2 8 9
2 9 10
2 10 11
2 11 12
2 12 13
2 13 14
2 14 15
2 15 16
2 16 17
2 17 18
2 18 19
2 19 20
2 20 21
2 21 22
2 22 23
2 23 24
2 24 25
2 25 26
2 26 27
2 27 28
2 28 29
2 29 30
2 30 31
2 31 32
2 32 33
2 33 34
2 34 35
2 35 36
2 36 37
2 37 38
2 38 39
2 39 40
2 40 41
2 41 42
2 42 43
2 43 44
2 44 45
2 45 46
2 46 47
2 47 48
2 48 49
2 49 50

CELL_TYPES 50
4
4
4
4
4
4
4
4
4
4
4
4
4
4
4
4
4
4
4
4
4
4
4
4
4
4
4
4
4
4
4
4
4
4
4
4
4
4
4
4
4
4
4
4
4
4
4
4
4
4

POINT_DATA 51

SCALARS zone float
LOOKUP_TABLE default
1.0
1.0
1.0
1.0
1.0
1.0
1.0
1.0
1.0
1.0
1.0
1.0
1.0
1.0
1.0
1.0
1.0
1.0
1.0
1.0
1.0
1.0
1.0
1.0
1.0
1.0
1.0
1.0
1.0
1.0
1.0
1.0
1.0
1.0
1.0
1.0
1.0
1.0
1.0
1.0
1.0
1.0
1.0
1.0
1.0
1.0
1.0
1.0
1.0
1.0
1.0

VECTORS normals float
-0.00011546154564712197 -0.0019926566164940596 -0.0005548476474359632
-0.00022074757725931704 -0.003994652070105076 -0.0009280590456910431
-0.0002789688587654382 -0.003981315530836582 -0.0006842653383500874
-0.00040420211735181516 -0.003933689557015896 -0.0005684401257894933
-0.00044531151070259506 -0.003857546718791127 -0.0005590422661043704
-0.0003278949297964573 -0.0037109176628291607 -0.0008127025212161243
-9.220571519108489e-5 -0.0035492242313921456 -0.0011225834023207426
0.00013812060933560133 -0.0034619306679815054 -0.0011548009933903813
0.0002748481638263911 -0.0033859792165458202 -0.0011446888092905283
0.0003148686664644629 -0.0032896031625568867 -0.0012108018854632974
0.00028992604347877204 -0.0032243565656244755 -0.0011607385240495205
0.00022987906413618475 -0.0031667095609009266 -0.0010823134798556566
0.00015821750275790691 -0.0030881217680871487 -0.0010820404859259725
9.200429485645145e-5 -0.003000115044414997 -0.001116918632760644
4.130187880946323e-5 -0.0029212934896349907 -0.0011175181716680527
9.696207598608453e-6 -0.002857404761016369 -0.0010623872512951493
-4.217552486807108e-6 -0.0028026863001286983 -0.0009730322635732592
-5.062076070316834e-6 -0.0027457978576421738 -0.0008917762897908689
1.7121039945777738e-6 -0.00267853494733572 -0.0008492376655340194
1.1616368283284828e-5 -0.002600997919216752 -0.000845042639411986
2.149965257558506e-5 -0.0025195220950990915 -0.0008555475506000221
2.9418395570246506e-5 -0.002440965035930276 -0.0008551600622013212
3.442417073529214e-5 -0.00236843922175467 -0.0008322630892507732
3.63165709131863e-5 -0.0023015551269054413 -0.0007883106591179967
3.5412773286225274e-5 -0.0022385299671441317 -0.0007299567805603147
3.2357384043280035e-5 -0.0021774591878056526 -0.0006643090746365488
2.7964591936324723e-5 -0.0021166044753044844 -0.000597855425439775
2.309120463905856e-5 -0.0020544622093439102 -0.0005362062365747988
1.854042238846887e-5 -0.0019898253958672285 -0.00048386736307293177
1.493051149736857e-5 -0.0019219886744394898 -0.0004434707807376981
1.2542826880235225e-5 -0.0018510391237214208 -0.000414691079640761
1.1316546078887768e-5 -0.0017778087640181184 -0.0003944238123949617
1.0972400559694506e-5 -0.0017035278724506497 -0.0003780770057346672
1.1129222002637107e-5 -0.001629514968954027 -0.00036073007504455745
1.1389166502340231e-5 -0.0015569583047181368 -0.00033794812043197453
1.1396474292268977e-5 -0.0014867739519104362 -0.00030631275149062276
1.0874458894249983e-5 -0.0014194149989634752 -0.0002641330938786268
9.644884812587406e-6 -0.0013543114764615893 -0.0002135357353836298
7.633578206878155e-6 -0.0012895719846710563 -0.00016157992649823427
4.865619757765671e-6 -0.001222651801072061 -0.00011776270548580213
1.4529367717841524e-6 -0.0011512644123286009 -9.061674791155383e-5
-2.4232347186625702e-6 -0.0010738548589870334 -8.59465726534836e-5
-6.532860879815417e-6 -0.0009891591034829617 -0.00010846825171029195
-1.0618759006320033e-5 -0.0008956252713687718 -0.0001639745314605534
-1.4417873899219556e-5 -0.0007923124358057977 -0.00025597630883567035
-1.7680962628219277e-5 -0.0006802824791520834 -0.0003805109881795943
-2.018977284024004e-5 -0.0005629585357382894 -0.0005248029483482242
-2.1771005776827224e-5 -0.00044561290997080505 -0.0006691758753731847
-2.2306650862446986e-5 -0.0003343959106132388 -0.0007906765677034855
-2.1740446754847653e-5 -0.00023522587434854358 -0.0008672172552905977
-1.058942416420905e-5 -9.467159543419257e-5 -0.00044583514682017267

CELL_DATA 50

VECTORS liftinglineloading               float
0.15000486373901367 0.04188267141580582 -0.11507169902324677
0.22606788575649261 0.07200843095779419 -0.19784153997898102
-0.07632660120725632 0.016992894932627678 -0.046687595546245575
0.12185210734605789 0.024182941764593124 -0.0664420872926712
0.15483948588371277 0.04124635085463524 -0.11332342028617859
-0.517909586429596 0.13768167793750763 -0.3782773017883301
-1.6995537281036377 0.3061418831348419 -0.8411179184913635
-3.366058826446533 0.5018052458763123 -1.3786985874176025
-5.299912929534912 0.6966444253921509 -1.91401481628418
-7.486745834350586 0.8988298177719116 -2.4695146083831787
-9.649269104003906 1.078305721282959 -2.962620496749878
-11.569249153137207 1.22250235080719 -3.358797788619995
-12.824907302856445 1.297189474105835 -3.5639986991882324
-13.812152862548828 1.3526724576950073 -3.716437101364136
-14.568028450012207 1.3735275268554688 -3.773735761642456
-15.129477500915526 1.3743324279785156 -3.775947332382202
-15.273001670837404 1.3317445516586304 -3.65893816947937
-15.254581451416016 1.2966585159301758 -3.562540054321289
-15.949347496032713 1.2930593490600586 -3.5526514053344727
-15.856085777282715 1.2436349391937256 -3.4168586730957027
-15.825882911682127 1.2120333909988403 -3.3300344944000244
-15.752130508422852 1.155242919921875 -3.174004077911377
-16.07591438293457 1.177738070487976 -3.2358086109161377
-15.821581840515137 1.1291905641555786 -3.1024255752563477
-16.66678237915039 1.1354639530181885 -3.119661808013916
-17.9100399017334 1.1075890064239502 -3.0430757999420166
-18.44670867919922 1.0902988910675049 -2.9955716133117676
-20.01762580871582 1.1538625955581665 -3.1702115535736084
-21.456722259521484 1.1586363315582275 -3.1833271980285645
-22.580522537231445 1.1398191452026367 -3.131627321243286
-23.58769416809082 1.0859140157699585 -2.9835243225097656
-24.387428283691406 1.01589035987854 -2.791135787963867
-24.954986572265625 0.9942858815193177 -2.731778144836426
-25.28546714782715 0.9081794619560241 -2.4952025413513184
-25.244203567504883 0.8668083548545837 -2.3815364837646484
-25.00345230102539 0.8106112480163574 -2.2271361351013184
-24.70049285888672 0.7287362813949585 -2.0021865367889404
-23.751283645629883 0.6807084083557129 -1.8702309131622314
-22.742395401000977 0.6461599469184875 -1.7753099203109743
-21.720670700073242 0.5914844870567322 -1.62509024143219
-20.70579719543457 0.5588076710700989 -1.5353114604949951
-18.66302490234375 0.5391391515731812 -1.481272578239441
-15.600469589233398 0.559814453125 -1.5380775928497314
-13.081468582153322 0.5461969375610352 -1.5006637573242188
-10.55786418914795 0.6173484325408936 -1.6961507797241213
-8.938770294189453 0.6359718441963196 -1.7473182678222656
-7.084775924682617 0.6265398859977722 -1.7214041948318481
-5.466892719268799 0.6221981644630432 -1.70947539806366
-3.613385438919068 0.607300341129303 -1.6685439348220827
-1.9516375064849854 0.5890491604804993 -1.6183991432189941