# vtk DataFile Version 4.0
 
ASCII
DATASET UNSTRUCTURED_GRID
POINTS 51 float
0.0032294827979058027 -0.005382002331316471 -0.005387269891798496
0.0029985597357153893 -0.00606054300442338 -0.009468168020248413
0.0027879877015948296 -0.00707621406763792 -0.013412468135356903
0.0024406220763921738 -0.008185386657714844 -0.017263127490878105
0.001979583641514182 -0.00937074888497591 -0.021023200824856758
0.0015499991131946445 -0.010432597249746323 -0.024727899581193924
0.0013237936655059457 -0.011034234426915646 -0.02843659371137619
0.00136558769736439 -0.011397718451917171 -0.03211012855172157
0.0016000348841771481 -0.011867174878716469 -0.035687822848558426
0.0019152839668095112 -0.012184791266918182 -0.03921514004468918
0.002229772275313735 -0.012452948838472366 -0.042674023658037186
0.002495136111974716 -0.012806162238121031 -0.04604075849056244
0.002689530374482274 -0.013167749159038069 -0.04932885989546776
0.00281157111749053 -0.013455032370984553 -0.05255291610956192
0.0028735389932990074 -0.013679012656211855 -0.055710978806018836
0.00289417477324605 -0.013898585923016073 -0.058792661875486374
0.0028929314576089382 -0.014168495312333107 -0.061788320541381836
0.0028857397846877575 -0.014503784477710724 -0.06469529867172241
0.002882807282730937 -0.014872896485030653 -0.0675191581249237
0.002889164024963975 -0.01522843912243843 -0.07026825845241547
0.002906039822846651 -0.015539617277681826 -0.07294803112745285
0.0029321631882339716 -0.015807252377271652 -0.07555832713842392
0.002964876824989915 -0.0160527341067791 -0.07809537649154663
0.003001011675223708 -0.016300570219755173 -0.08055485039949417
0.003037509974092245 -0.016569187864661217 -0.08293351531028748
0.0030718371272087097 -0.016869526356458664 -0.08522943407297134
0.003102224553003907 -0.01720551960170269 -0.08744191378355026
0.0031277663074433804 -0.01757487654685974 -0.08957135677337646
0.0031484069768339396 -0.017970090731978416 -0.0916190817952156
0.0031648471485823393 -0.018379684537649155 -0.09358712285757065
0.0031782679725438356 -0.01879078336060047 -0.09547774493694305
0.0031899327877908945 -0.01919257454574108 -0.09729286283254623
0.0032009012065827847 -0.019578512758016586 -0.09903361648321152
0.003211877541616559 -0.019947150722146034 -0.1007002666592598
0.003223159583285451 -0.020301973447203636 -0.10229220241308212
0.003234656061977148 -0.020650578662753105 -0.10380807518959047
0.0032459525391459465 -0.021003421396017075 -0.10524605214595793
0.0032564047724008556 -0.021371547132730484 -0.1066041886806488
0.0032652423251420264 -0.021761076524853706 -0.10788138955831528
0.003271671943366527 -0.022168658673763275 -0.1090782582759857
0.0032749734818935394 -0.02258104830980301 -0.11019712686538698
0.0032745779026299715 -0.022977495566010475 -0.11124165356159209
0.0032701271120458846 -0.023332921788096428 -0.11221625655889511
0.0032615121454000473 -0.023616958409547806 -0.11312630027532578
0.0032488894648849964 -0.02379271388053894 -0.11397827416658401
0.003232676535844803 -0.023822663351893425 -0.11477881669998169
0.0032135276123881336 -0.023677993565797806 -0.1155329868197441
0.003192296950146556 -0.02334723062813282 -0.11624282598495483
0.0031699857208877806 -0.02284168265759945 -0.11690632998943329
0.003147683572024107 -0.022196682170033455 -0.11751726269721983
0.0031265048310160637 -0.021468574181199074 -0.11806570738554001

CELLS 50 150
2 0 1
2 1 2
2 2 3
2 3 4
2 4 5
2 5 6
2 6 7
2 7 8
2 8 9
2 9 10
2 10 11
2 11 12
2 12 13
2 13 14
2 14 15
2 15 16
2 16 17
2 17 18
2 18 19
2 19 20
2 20 21
2 21 22
2 22 23
2 23 24
2 24 25
2 25 26
2 26 27
2 27 28
2 28 29
2 29 30
2 30 31
2 31 32
2 32 33
2 33 34
2 34 35
2 35 36
2 36 37
2 37 38
2 38 39
2 39 40
2 40 41
2 41 42
2 42 43
2 43 44
2 44 45
2 45 46
2 46 47
2 47 48
2 48 49
2 49 50

CELL_TYPES 50
4
4
4
4
4
4
4
4
4
4
4
4
4
4
4
4
4
4
4
4
4
4
4
4
4
4
4
4
4
4
4
4
4
4
4
4
4
4
4
4
4
4
4
4
4
4
4
4
4
4

POINT_DATA 51

SCALARS zone float
LOOKUP_TABLE default
1.0
1.0
1.0
1.0
1.0
1.0
1.0
1.0
1.0
1.0
1.0
1.0
1.0
1.0
1.0
1.0
1.0
1.0
1.0
1.0
1.0
1.0
1.0
1.0
1.0
1.0
1.0
1.0
1.0
1.0
1.0
1.0
1.0
1.0
1.0
1.0
1.0
1.0
1.0
1.0
1.0
1.0
1.0
1.0
1.0
1.0
1.0
1.0
1.0
1.0
1.0

VECTORS normals float
-0.00011546154564712197 -0.0003392703365534544 -0.0020404490642249584
-0.00022074757725931704 -0.0008471058099530638 -0.004012599121779203
-0.0002789688587654382 -0.0010624215938150883 -0.0038974802009761333
-0.00040420211735181516 -0.001147267408668995 -0.0038053665775805707
-0.00044531151070259506 -0.0011236052960157394 -0.0037323860451579094
-0.0003278949297964573 -0.0008317430038005114 -0.0037066964432597156
-9.220571519108489e-5 -0.000482560892123729 -0.0036911137867718935
0.00013812060933560133 -0.00041646996396593744 -0.003625614568591118
0.0002748481638263911 -0.00039353626198135316 -0.0035525057464838032
0.0003148686664644629 -0.00029288718360476196 -0.003493099939078093
0.00028992604347877204 -0.00031068568932823837 -0.003412808757275343
0.00022987906413618475 -0.0003574001893866807 -0.003327419050037861
0.00015821750275790691 -0.00032443489180877805 -0.0032560788094997406
9.200429485645145e-5 -0.0002556313993409276 -0.0031910578254610296
4.130187880946323e-5 -0.0002217765577370301 -0.0031198745127767324
9.696207598608453e-6 -0.0002447415899951011 -0.003038672497496009
-4.217552486807108e-6 -0.0003025996556971222 -0.002951317699626088
-5.062076070316834e-6 -0.0003522004990372807 -0.002865418791770935
1.7121039945777738e-6 -0.00036232706042937934 -0.0027864803560078144
1.1616368283284828e-5 -0.0003333604836370796 -0.0027144351042807102
2.149965257558506e-5 -0.00028940668562427163 -0.0026450324803590775
2.9418395570246506e-5 -0.00025655815261416137 -0.0025736717507243156
3.442417073529214e-5 -0.00024665912496857345 -0.0024982644245028496
3.63165709131863e-5 -0.0002582271408755332 -0.0024190719705075026
3.5412773286225274e-5 -0.00028447818476706743 -0.002337290206924081
3.2357384043280035e-5 -0.0003181655774824321 -0.002254197373986244
2.7964591936324723e-5 -0.00035267468774691224 -0.002170959720388055
2.309120463905856e-5 -0.0003822854196187109 -0.0020885856356471777
1.854042238846887e-5 -0.000402403820771724 -0.002007885370403528
1.493051149736857e-5 -0.0004103465180378408 -0.0019293321529403329
1.2542826880235225e-5 -0.0004064452077727765 -0.0018528671935200691
1.1316546078887768e-5 -0.00039386507705785334 -0.0017779326299205425
1.0972400559694506e-5 -0.0003772878262680024 -0.0017037028446793556
1.1129222002637107e-5 -0.000361730286385864 -0.0016292931977659464
1.1389166502340231e-5 -0.0003517139994073659 -0.0015539064770564437
1.1396474292268977e-5 -0.0003507241781335324 -0.001476928242482245
1.0874458894249983e-5 -0.00036048481706529856 -0.0013980543008074164
9.644884812587406e-6 -0.00037882765172980726 -0.0013176670763641596
7.633578206878155e-6 -0.00039855550858192146 -0.0012370357289910316
4.865619757765671e-6 -0.0004099856887478382 -0.0011578674893826246
1.4529367717841524e-6 -0.0004044187371619045 -0.0010816962458193302
-2.4232347186625702e-6 -0.0003759366227313876 -0.001009565545246005
-6.532860879815417e-6 -0.0003197311016265303 -0.0009423232986591756
-1.0618759006320033e-5 -0.00022989619174040854 -0.0008810107829049231
-1.4417873899219556e-5 -0.00010285238386131822 -0.0008262592018581927
-1.7680962628219277e-5 5.736028469982557e-5 -0.0007773562101647258
-2.018977284024004e-5 0.00023771642008796334 -0.0007320049917325377
-2.1771005776827224e-5 0.00041815513395704334 -0.000686668383423239
-2.2306650862446986e-5 0.0005752745200879872 -0.000637219927739352
-2.1740446754847653e-5 0.0006865549948997796 -0.0005796888726763427
-1.058942416420905e-5 0.0003640539071056992 -0.00027421966660767794

CELL_DATA 50

VECTORS liftinglineloading               float
0.20933909714221954 0.15317067503929138 -0.013400698080658913
0.29841819405555725 0.2572920024394989 -0.022510133683681488
-0.3453425168991089 0.23038773238658905 -0.020156314596533775
0.04314105957746506 0.05241602659225464 -0.004585808143019676
0.331100732088089 0.044047076255083084 -0.0038536197971552606
-0.18493647873401642 0.2688223719596863 -0.023518910631537437
-1.3281934261322021 0.7678673267364502 -0.06717968732118607
-3.029365301132202 1.394220232963562 -0.12197846919298172
-5.08137321472168 2.0094666481018066 -0.17580553889274597
-7.357366561889648 2.6261744499206543 -0.22976048290729523
-9.649264335632324 3.178337574005127 -0.27806851267814636
-11.625418663024902 3.6090729236602783 -0.3157529830932617
-12.946284294128418 3.8355438709259033 -0.33556661009788513
-13.986351013183596 4.001701354980469 -0.350103497505188
-14.781941413879396 4.06409215927124 -0.3555620014667511
-15.383346557617188 4.0685577392578125 -0.3559526801109314
-15.56971263885498 3.94690203666687 -0.34530919790267944
-15.611642837524412 3.8486013412475586 -0.33670899271965027
-16.409433364868164 3.846664667129516 -0.3365395665168762
-16.429866790771484 3.710015773773193 -0.32458433508872986
-16.54570770263672 3.6283624172210693 -0.31744056940078735
-16.57291030883789 3.4660828113555913 -0.303242951631546
-17.04801368713379 3.533861637115479 -0.3091728389263153
-16.92986488342285 3.3959591388702393 -0.2971079349517822
-17.874826431274414 3.4081544876098633 -0.2981748878955841
-19.13642692565918 3.3183982372283936 -0.2903222143650055
-19.72357749938965 3.265920400619507 -0.2857309877872467
-21.162065505981445 3.4234392642974854 -0.29951211810112
-22.505725860595703 3.4220478534698486 -0.29939040541648865
-23.455400466918945 3.3521573543548584 -0.29327577352523804
-24.194509506225586 3.1865978240966797 -0.2787911891937256
-24.760757446289062 2.974057674407959 -0.260196328163147
-25.071557998657227 2.9102554321289062 -0.25461435317993164
-25.188945770263672 2.6628241539001465 -0.23296692967414856
-25.02919578552246 2.54529070854187 -0.2226840853691101
-24.649099349975586 2.3855669498443604 -0.20871005952358246
-24.05803680419922 2.1490447521209717 -0.1880170702934265
-23.079748153686523 2.0099668502807617 -0.1758493185043335
-21.946590423583984 1.9093875885009766 -0.16704976558685303
-20.918838500976562 1.756394386291504 -0.15366460382938385
-19.893604278564453 1.6554346084594727 -0.14483176171779633
-17.900188446044922 1.5908434391021729 -0.1391807645559311
-14.899767875671387 1.6334879398345947 -0.14291167259216309
-12.470329284667969 1.5870962142944336 -0.13885292410850525
-10.045390129089355 1.7731209993362427 -0.15512798726558685
-8.451937675476074 1.8240114450454712 -0.1595803201198578
-6.669093132019042 1.7915493249893188 -0.15674026310443878
-5.087778091430664 1.7757039070129397 -0.15535396337509155
-3.3435089588165283 1.7304861545562744 -0.1513979136943817
-1.7901207208633423 1.6754547357559204 -0.14658330380916595