# vtk DataFile Version 4.0
 
ASCII
DATASET UNSTRUCTURED_GRID
POINTS 51 float
0.0032294827979058027 0.007154509425163269 0.0026079921517521143
0.0029985597357153893 0.009494137950241566 0.006019778084009886
0.0027879877015948296 0.012081582099199295 0.009165287017822266
0.0024406220763921738 0.014714192599058151 0.012186413630843163
0.001979583641514182 0.017377572134137154 0.015093240886926651
0.0015499991131946445 0.019905606284737587 0.018002081662416458
0.0013237936655059457 0.02201823703944683 0.02110903710126877
0.00136558769736439 0.023900168016552925 0.02428477443754673
0.0016000348841771481 0.025837639346718788 0.027328867465257648
0.0019152839668095112 0.02761620469391346 0.030391471460461613
0.002229772275313735 0.029321026057004932 0.033412955701351166
0.002495136111974716 0.0310639888048172 0.03631497919559479
0.002689530374482274 0.03278131037950516 0.039142198860645294
0.00281157111749053 0.034404221922159195 0.0419427715241909
0.0028735389932990074 0.035941872745752335 0.04471029341220856
0.00289417477324605 0.03744325041770935 0.04741045460104942
0.0028929314576089382 0.03895388916134834 0.050011374056339264
0.0028857397846877575 0.04048630967736244 0.05250428989529609
0.002882807282730937 0.04201425239443779 0.05490758270025253
0.002889164024963975 0.04349830374121666 0.05724885314702988
0.002906039822846651 0.04491284489631653 0.05954604223370552
0.0029321631882339716 0.04625856503844261 0.061798665672540665
0.002964876824989915 0.04755324870347977 0.06399426609277725
0.003001011675223708 0.048817288130521774 0.06611857563257217
0.003037509974092245 0.05006600171327591 0.06816085427999496
0.0030718371272087097 0.05130849778652191 0.07011473178863525
0.003102224553003907 0.052548043429851525 0.07197792083024979
0.0031277663074433804 0.05378273874521256 0.07375175505876541
0.0031484069768339396 0.055006328970193856 0.07544060051441193
0.0031648471485823393 0.05620927736163139 0.07705114781856537
0.0031782679725438356 0.057380873709917075 0.07859089970588684
0.0031899327877908945 0.058512117713689804 0.08006614446640015
0.0032009012065827847 0.059597570449113846 0.08148069679737091
0.003211877541616559 0.06063602864742279 0.08283540606498718
0.003223159583285451 0.06163038685917855 0.0841282308101654
0.003234656061977148 0.06258697062730789 0.0853547602891922
0.0032459525391459465 0.06351447105407715 0.08650889247655869
0.0032564047724008556 0.06442207843065262 0.08758419752120972
0.0032652423251420264 0.065314881503582 0.08857711404561996
0.003271671943366527 0.06619009375572205 0.08948959410190582
0.0032749734818935394 0.0670366957783699 0.09032934904098511
0.0032745779026299715 0.0678374394774437 0.09110846370458603
0.0032701271120458846 0.06857144832611084 0.09184154868125916
0.0032615121454000473 0.06921347230672836 0.09254628419876099
0.0032488894648849964 0.06973282247781754 0.09324416518211365
0.003232676535844803 0.07009828835725784 0.09395704418420792
0.0032135276123881336 0.07028590142726898 0.09470169246196747
0.003192296950146556 0.07028611749410629 0.09548481553792953
0.0031699857208877806 0.07010834664106369 0.09629980474710464
0.003147683572024107 0.06978196650743484 0.09712608903646469
0.0031265048310160637 0.0693538561463356 0.09793085604906082

CELLS 50 150
2 0 1
2 1 2
2 2 3
2 3 4
2 4 5
2 5 6
2 6 7
2 7 8
2 8 9
2 9 10
2 10 11
2 11 12
2 12 13
2 13 14
2 14 15
2 15 16
2 16 17
2 17 18
2 18 19
2 19 20
2 20 21
2 21 22
2 22 23
2 23 24
2 24 25
2 25 26
2 26 27
2 27 28
2 28 29
2 29 30
2 30 31
2 31 32
2 32 33
2 33 34
2 34 35
2 35 36
2 36 37
2 37 38
2 38 39
2 39 40
2 40 41
2 41 42
2 42 43
2 43 44
2 44 45
2 45 46
2 46 47
2 47 48
2 48 49
2 49 50

CELL_TYPES 50
4
4
4
4
4
4
4
4
4
4
4
4
4
4
4
4
4
4
4
4
4
4
4
4
4
4
4
4
4
4
4
4
4
4
4
4
4
4
4
4
4
4
4
4
4
4
4
4
4
4

POINT_DATA 51

SCALARS zone float
LOOKUP_TABLE default
1.0
1.0
1.0
1.0
1.0
1.0
1.0
1.0
1.0
1.0
1.0
1.0
1.0
1.0
1.0
1.0
1.0
1.0
1.0
1.0
1.0
1.0
1.0
1.0
1.0
1.0
1.0
1.0
1.0
1.0
1.0
1.0
1.0
1.0
1.0
1.0
1.0
1.0
1.0
1.0
1.0
1.0
1.0
1.0
1.0
1.0
1.0
1.0
1.0
1.0
1.0

VECTORS normals float
-0.00011546154564712197 0.0011698143789544702 0.0017058929661288857
-0.00022074757725931704 0.0024635361041873693 0.003278647316619754
-0.0002789688587654382 0.0026100273244082928 0.0030833177734166384
-0.00040420211735181516 0.0026479947846382856 0.00296397740021348
-0.00044531151070259506 0.002595706842839718 0.002907834481447935
-0.0003278949297964573 0.002320332685485482 0.0030078981071710587
-9.220571519108489e-5 0.001997280865907669 0.0031413461547344923
0.00013812060933560133 0.001909700920805335 0.0031099149491637945
0.0002748481638263911 0.0018580186879262326 0.003053348045796156
0.0003148686664644629 0.0017416938208043575 0.003042044350877404
0.00028992604347877204 0.0017238921718671916 0.0029617538675665855
0.00022987906413618475 0.0017301426269114017 0.002864621812477708
0.00015821750275790691 0.0016701162094250321 0.0028138975612819195
9.200429485645145e-5 0.0015802800189703703 0.002784046111628413
4.130187880946323e-5 0.0015195137821137905 0.002733839675784111
9.696207598608453e-6 0.001506009604781866 0.0026505400892347097
-4.217552486807108e-6 0.0015215291641652584 0.0025469178799539804
-5.062076070316834e-6 0.0015301803359761834 0.0024481050204485655
1.7121039945777738e-6 0.0015059973811730742 0.0023722827900201082
1.1616368283284828e-5 0.001449297065846622 0.00231922953389585
2.149965257558506e-5 0.001380130648612976 0.0022749050986021757
2.9418395570246506e-5 0.0013202013215050101 0.0022241126280277967
3.442417073529214e-5 0.0012793613132089376 0.0021599538158625364
3.63165709131863e-5 0.0012563772033900023 0.002083292230963707
3.5412773286225274e-5 0.0012456063413992524 0.001998078776523471
3.2357384043280035e-5 0.001241020974703133 0.0019085340900346635
2.7964591936324723e-5 0.0012371190823614597 0.0018185109365731478
2.309120463905856e-5 0.0012291427701711655 0.0017313407734036448
1.854042238846887e-5 0.001213270821608603 0.0016496990574523807
1.493051149736857e-5 0.0011872712057083845 0.0015751487808302045
1.2542826880235225e-5 0.0011514199431985617 0.0015074968105182052
1.1316546078887768e-5 0.0011083497665822506 0.0014448995934799314
1.0972400559694506e-5 0.0010619547683745623 0.0013846303336322308
1.1129222002637107e-5 0.001016407972201705 0.001323767239227891
1.1389166502340231e-5 0.0009754704078659415 0.001259676762856543
1.1396474292268977e-5 0.0009420408750884235 0.0011903290869668126
1.0874458894249983e-5 0.0009175534942187369 0.0011147200129926205
9.644884812587406e-6 0.000900204642675817 0.001034112530760467
7.633578206878155e-6 0.0008840078371576965 0.000952698290348053
4.865619757765671e-6 0.0008609091746620833 0.0008761168573983014
1.4529367717841524e-6 0.0008236724534071982 0.0008094349759630859
-2.4232347186625702e-6 0.0007673751097172499 0.0007560994708910584
-6.532860879815417e-6 0.0006880178116261959 0.0007189107709564269
-1.0618759006320033e-5 0.0005806879489682615 0.0007013085996732116
-1.4417873899219556e-5 0.00044240814168006176 0.0007053778390400112
-1.7680962628219277e-5 0.0002765388635452837 0.0007287655025720596
-2.018977284024004e-5 9.391444473294541e-5 0.0007638851529918611
-2.1771005776827224e-5 -8.877865184331313e-5 0.000799052941147238
-2.2306650862446986e-5 -0.00025207496946677566 0.0008206389029510319
-2.1740446754847653e-5 -0.000377243006369099 0.000815527222584933
-1.058942416420905e-5 -0.00021405465668067336 0.0004023832443635911

CELL_DATA 50

VECTORS liftinglineloading               float
0.17835374176502228 -0.11993669718503952 0.06924548745155334
0.26830360293388367 -0.20785896480083466 0.12000743299722673
-0.1698993444442749 -0.09053594619035721 0.052270952612161636
0.08144024759531021 -0.053930483758449554 0.031136779114604
0.26877233386039734 -0.0630524531006813 0.0364033542573452
-0.3237289786338806 -0.28258323669433594 0.16314950585365295
-1.4708197116851807 -0.7112277746200562 0.410627543926239
-3.111855983734131 -1.2263702154159546 0.7080451846122742
-5.075530529022217 -1.7385545969009402 1.00375497341156
-7.254961490631104 -2.257791519165039 1.3035365343093872
-9.451128005981445 -2.7244229316711426 1.572946310043335
-11.35085678100586 -3.0919017791748047 1.7851103544235227
-12.612287521362305 -3.2850193977355957 1.8966068029403687
-13.740479469299316 -3.4360356330871578 1.9837961196899414
-14.498101234436037 -3.484731912612915 2.011910915374756
-15.064485549926758 -3.4853060245513916 2.012242317199707
-15.221538543701172 -3.373861312866211 1.9478996992111206
-15.238863945007324 -3.2879395484924316 1.8982927799224854
-16.005216598510742 -3.2845890522003174 1.8963583707809448
-16.02334976196289 -3.1680893898010254 1.8290972709655762
-16.1538028717041 -3.100252628326416 1.7899317741394043
-16.06844139099121 -2.9545836448669434 1.7058296203613281
-16.539464950561523 -3.0177299976348877 1.742287278175354
-16.428386688232422 -2.901524782180786 1.6751961708068848
-17.38522720336914 -2.917348623275757 1.684332013130188
-18.675338745117188 -2.8446438312530518 1.6423557996749878
-19.277379989624023 -2.8020763397216797 1.6177794933319092
-20.763416290283203 -2.945953607559204 1.7008471488952637
-22.138893127441406 -2.949361562728882 1.702814698219299
-23.132755279541016 -2.893099069595337 1.6703314781188967
-23.93279266357422 -2.75252366065979 1.589170217514038
-24.53459930419922 -2.571305513381958 1.4845439195632935
-24.91465187072754 -2.5170834064483643 1.453238844871521
-25.09827995300293 -2.303053855895996 1.3296687602996826
-24.966970443725586 -2.201550245285034 1.2710657119750977
-24.609088897705078 -2.063481330871582 1.1913515329360962
-24.04537582397461 -1.8591003417968752 1.0733520984649658
-23.083335876464844 -1.7386575937271118 1.003814458847046
-22.038522720336914 -1.6504149436950684 0.9528675079345703
-21.01162338256836 -1.5169134140014648 0.8757903575897216
-19.9881534576416 -1.4305163621902466 0.8259090185165404
-17.988113403320312 -1.3757601976394653 0.7942954897880554
-14.980644226074219 -1.4155446290969849 0.8172650337219237
-12.537872314453125 -1.3763267993927002 0.7946226596832275
-10.16701889038086 -1.544397234916687 0.8916581869125366
-8.554239273071289 -1.5885844230651855 0.9171696901321411
-6.745187759399413 -1.5606968402862549 0.9010687470436096
-5.143106937408447 -1.5461757183074951 0.8926849365234376
-3.3767738342285156 -1.5064955949783325 0.8697755932807922
-1.8070392608642578 -1.4583158493041992 0.8419590592384338