# vtk DataFile Version 4.0
 
ASCII
DATASET UNSTRUCTURED_GRID
POINTS 51 float
0.0032294827979058027 0.0006599827902391553 0.007586372550576925
0.0029985597357153893 -0.0014433754840865731 0.011148679070174694
0.0027879877015948296 -0.0032006734982132907 0.014823049306869505
0.0024406220763921738 -0.00482615502551198 0.018485788255929947
0.001979583641514182 -0.006335043348371983 0.022128107026219368
0.0015499991131946445 -0.007902954705059528 0.025648614391684536
0.0013237936655059457 -0.009825976565480232 0.02887636423110962
0.00136558769736439 -0.01190883293747902 0.03192409873008728
0.0016000348841771481 -0.013848907314240932 0.03496653214097023
0.0019152839668095112 -0.015872914344072342 0.03787277266383171
0.002229772275313735 -0.017890820279717445 0.04069479927420616
0.002495136111974716 -0.019784338772296906 0.043500907719135284
0.002689530374482274 -0.021620899438858032 0.046252164989709854
0.00281157111749053 -0.023473208770155907 0.0489065945148468
0.0028735389932990074 -0.025331594049930573 0.05146978422999382
0.00289417477324605 -0.02714426070451736 0.053971633315086365
0.0028929314576089382 -0.02886307053267956 0.05643993243575096
0.0028857397846877575 -0.030474793165922165 0.05888232588768006
0.002882807282730937 -0.03200718015432358 0.06128279119729995
0.002889164024963975 -0.03350190445780754 0.06361725926399231
0.002906039822846651 -0.03498605266213417 0.06587010622024536
0.0029321631882339716 -0.03645889833569527 0.06804174184799194
0.002964876824989915 -0.037901632487773895 0.07014302164316177
0.003001011675223708 -0.039292700588703156 0.07218640297651291
0.003037509974092245 -0.04061590135097504 0.07418122887611389
0.0030718371272087097 -0.04186161607503891 0.07613305747509003
0.003102224553003907 -0.043026383966207504 0.07804388552904129
0.0031277663074433804 -0.04411222040653229 0.07991255074739456
0.0031484069768339396 -0.045125722885131836 0.08173523843288422
0.0031648471485823393 -0.04607699066400528 0.08350612968206406
0.0031782679725438356 -0.04697733744978905 0.08521868288516998
0.0031899327877908945 -0.04783627763390541 0.08686739951372147
0.0032009012065827847 -0.048659566789865494 0.08844897150993347
0.003211877541616559 -0.04944847896695137 0.0899626612663269
0.003223159583285451 -0.05019994452595711 0.09141022711992264
0.003234656061977148 -0.050907284021377563 0.09279553592205048
0.0032459525391459465 -0.05156130716204643 0.09412389248609543
0.0032564047724008556 -0.05215229466557503 0.09540090709924698
0.0032652423251420264 -0.052674867212772376 0.09662968665361404
0.003271671943366527 -0.05313197523355484 0.09780853241682053
0.0032749734818935394 -0.053535260260105126 0.0989307165145874
0.0032745779026299715 -0.05390297248959541 0.09998569637537003
0.0032701271120458846 -0.054257165640592575 0.10096075385808945
0.0032615121454000473 -0.054624542593956 0.10184045881032944
0.0032488894648849964 -0.055037546902894974 0.10260608792304994
0.003232676535844803 -0.05552918091416358 0.10323859006166457
0.0032135276123881336 -0.05612478032708168 0.10372332483530043
0.003192296950146556 -0.056834433227777474 0.10405448079109192
0.0031699857208877806 -0.0576481930911541 0.10423779487609863
0.003147683572024107 -0.05853499844670296 0.10429120063781738
0.0031265048310160637 -0.05944529175758362 0.10424330830574037

CELLS 50 150
2 0 1
2 1 2
2 2 3
2 3 4
2 4 5
2 5 6
2 6 7
2 7 8
2 8 9
2 9 10
2 10 11
2 11 12
2 12 13
2 13 14
2 14 15
2 15 16
2 16 17
2 17 18
2 18 19
2 19 20
2 20 21
2 21 22
2 22 23
2 23 24
2 24 25
2 25 26
2 26 27
2 27 28
2 28 29
2 29 30
2 30 31
2 31 32
2 32 33
2 33 34
2 34 35
2 35 36
2 36 37
2 37 38
2 38 39
2 39 40
2 40 41
2 41 42
2 42 43
2 43 44
2 44 45
2 45 46
2 46 47
2 47 48
2 48 49
2 49 50

CELL_TYPES 50
4
4
4
4
4
4
4
4
4
4
4
4
4
4
4
4
4
4
4
4
4
4
4
4
4
4
4
4
4
4
4
4
4
4
4
4
4
4
4
4
4
4
4
4
4
4
4
4
4
4

POINT_DATA 51

SCALARS zone float
LOOKUP_TABLE default
1.0
1.0
1.0
1.0
1.0
1.0
1.0
1.0
1.0
1.0
1.0
1.0
1.0
1.0
1.0
1.0
1.0
1.0
1.0
1.0
1.0
1.0
1.0
1.0
1.0
1.0
1.0
1.0
1.0
1.0
1.0
1.0
1.0
1.0
1.0
1.0
1.0
1.0
1.0
1.0
1.0
1.0
1.0
1.0
1.0
1.0
1.0
1.0
1.0
1.0
1.0

VECTORS normals float
-0.00011546154564712197 -0.0010516791371628642 0.001781153376214206
-0.00022074757725931704 -0.001930328202433884 0.003618338145315647
-0.0002789688587654382 -0.0016913898289203642 0.0036685543600469828
-0.00040420211735181516 -0.0015671848086640239 0.003652529325336218
-0.00044531151070259506 -0.001538399956189096 0.0035814133007079363
-0.0003278949297964573 -0.001745466492138803 0.003374128369614482
-9.220571519108489e-5 -0.0020029391162097454 0.003137741470709443
0.00013812060933560133 -0.0020114656072109938 0.003045083722099662
0.0002748481638263911 -0.0019820404704660177 0.0029743374325335026
0.0003148686664644629 -0.0020209567155689 0.002864134032279253
0.00028992604347877204 -0.001955712214112282 0.0028140682261437178
0.00022987906413618475 -0.0018650392303243282 0.0027786833234131336
0.00015821750275790691 -0.00184443558100611 0.002702843863517046
9.200429485645145e-5 -0.001855347421951592 0.002608808921650052
4.130187880946323e-5 -0.001835525967180729 0.002532517770305276
9.696207598608453e-6 -0.001765738008543849 0.002485075034201145
-4.217552486807108e-6 -0.0016652656486257909 0.0024553476832807064
-5.062076070316834e-6 -0.0015720544615760446 0.0024214282166212797
1.7121039945777738e-6 -0.0015135564608499408 0.0023674671538174152
1.1616368283284828e-5 -0.0014894363703206182 0.0022936579771339893
2.149965257558506e-5 -0.0014784957747906446 0.0022122394293546677
2.9418395570246506e-5 -0.001457789447158575 0.0021364593412727118
3.442417073529214e-5 -0.0014169015921652317 0.00207233102992177
3.63165709131863e-5 -0.0013571359449997544 0.0020191017538309097
3.5412773286225274e-5 -0.0012844583252444863 0.001973327249288559
3.2357384043280035e-5 -0.001205241191200912 0.0019313283264636996
2.7964591936324723e-5 -0.0011253015836700797 0.0018897465197369454
2.309120463905856e-5 -0.0010496694594621658 0.001845677848905325
1.854042238846887e-5 -0.0009823846630752087 0.0017967897001653908
1.493051149736857e-5 -0.0009258071659132839 0.0017417197814211252
1.2542826880235225e-5 -0.0008796449983492494 0.0016806365456432104
1.1316546078887768e-5 -0.0008411149028688668 0.0016151469899341464
1.0972400559694506e-5 -0.000806099793408066 0.0015476279659196734
1.1129222002637107e-5 -0.0007701879949308932 0.0014806267572566867
1.1389166502340231e-5 -0.0007294032839126885 0.0014164388412609696
1.1396474292268977e-5 -0.0006806808523833752 0.0013568338472396135
1.0874458894249983e-5 -0.0006225045653991401 0.0013026868691667914
9.644884812587406e-6 -0.0005567813059315085 0.0012528973165899515
7.633578206878155e-6 -0.0004898399929516017 0.0012038109125569463
4.865619757765671e-6 -0.0004301955923438072 0.001150511670857668
1.4529367717841524e-6 -0.00038549822056666017 0.0010885827941820025
-2.4232347186625702e-6 -0.0003609520790632814 0.0010150194866582751
-6.532860879815417e-6 -0.00036078551784157753 0.0009273806936107576
-1.0618759006320033e-5 -0.00039019211544655263 0.0008226678473874927
-1.4417873899219556e-5 -0.00045231968397274613 0.0006990635301917791
-1.7680962628219277e-5 -0.0005436154315248132 0.0005586189217865467
-2.018977284024004e-5 -0.0006526251090690494 0.0004079471982549876
-2.1771005776827224e-5 -0.0007617073715664446 0.0002572335652075708
-2.2306650862446986e-5 -0.0008502829005010426 0.00011835948680527508
-2.1740446754847653e-5 -0.000898548460099846 2.758410573733272e-6
-1.058942416420905e-5 -0.00045514648081734776 -2.3944885469973087e-5

CELL_DATA 50

VECTORS liftinglineloading               float
0.12663505971431732 -0.08940687775611877 -0.06260336935520172
0.18154118955135345 -0.14573240280151367 -0.10204292833805083
-0.07083818316459656 -0.04581129923462868 -0.03207741677761078
0.1378689408302307 -0.0601029023528099 -0.042084503918886185
0.14126713573932648 -0.10237015783786774 -0.07168035954236984
-0.4983507990837097 -0.3229571580886841 -0.22613702714443207
-1.5946131944656372 -0.7052235007286072 -0.4938028156757355
-3.1506457328796387 -1.1633049249649048 -0.8145548701286316
-4.994840621948242 -1.6269630193710327 -1.1392117738723755
-7.036570072174072 -2.1022186279296875 -1.4719892740249634
-9.09675407409668 -2.5319442749023438 -1.772886514663696
-10.804585456848145 -2.8680660724639893 -2.0082414150238037
-11.920058250427246 -3.0482473373413086 -2.1344058513641357
-12.97726821899414 -3.188744068145752 -2.2327826023101807
-13.707023620605469 -3.227273464202881 -2.259761095046997
-14.236646652221678 -3.228872299194336 -2.260880708694458
-14.330026626586912 -3.1020190715789795 -2.1720571517944336
-14.2500581741333 -3.0201668739318848 -2.11474347114563
-14.84438991546631 -3.0069265365600586 -2.1054728031158447
-14.694565773010254 -2.8901526927948 -2.0237066745758057
-14.590359687805178 -2.812795877456665 -1.9695409536361692
-14.584774971008299 -2.6894307136535645 -1.8831596374511717
-14.85367202758789 -2.752361297607422 -1.9272241592407227
-14.7476167678833 -2.650965929031372 -1.8562264442443848
-15.683807373046873 -2.681696891784668 -1.8777443170547485
-17.057693481445312 -2.6270906925201416 -1.8395087718963625
-17.64305305480957 -2.5889344215393066 -1.8127913475036623
-19.38622283935547 -2.762147903442383 -1.9340767860412598
-20.906984329223633 -2.781679630279541 -1.9477530717849734
-22.128040313720703 -2.7437620162963867 -1.921202898025513
-23.279987335205078 -2.6170828342437744 -1.8325011730194094
-24.186870574951172 -2.4533634185791016 -1.7178635597229004
-24.838790893554688 -2.3996334075927734 -1.680241346359253
-25.21624755859375 -2.196585178375244 -1.5380654335021973
-25.266494750976562 -2.094860553741455 -1.4668371677398682
-25.063823699951172 -1.9580347537994385 -1.3710306882858276
-24.61864471435547 -1.7620633840560915 -1.2338100671768188
-23.713726043701172 -1.6450276374816895 -1.1518608331680298
-23.321453094482422 -1.5516366958618164 -1.0864677429199219
-22.2275333404541 -1.4184930324554443 -0.9932395219802856
-21.154441833496094 -1.3421056270599365 -0.939752459526062
-19.036388397216797 -1.2970409393310547 -0.908197820186615
-15.900808334350586 -1.3507159948349 -0.9457815885543824
-13.31709575653076 -1.3187575340270996 -0.9234039783477782
-10.736559867858887 -1.4929172992706299 -1.0453519821166992
-9.085761070251465 -1.5373188257217407 -1.0764422416687012
-7.19419240951538 -1.514188528060913 -1.060246229171753
-5.512887001037598 -1.5003776550292969 -1.0505757331848145
-3.637930154800415 -1.4637185335159302 -1.0249067544937134
-1.9606775045394897 -1.4189003705978394 -0.9935247898101807