# vtk DataFile Version 4.0
 
ASCII
DATASET UNSTRUCTURED_GRID
POINTS 51 float
0.0032294827979058027 0.001974511193111539 -0.0073545859195292
0.0029985597357153893 0.005169402342289686 -0.009982667863368988
0.0027879877015948296 0.008077430538833141 -0.012834414839744568
0.0024406220763921738 0.010857614688575268 -0.015720317140221596
0.001979583641514182 0.01352125220000744 -0.018626907840371132
0.0015499991131946445 0.016198690980672836 -0.021398844197392464
0.0013237936655059457 0.01910969614982605 -0.023774225264787674
0.00136558769736439 0.02210932783782482 -0.025925777852535248
0.0016000348841771481 0.024972975254058838 -0.028121186420321465
0.0019152839668095112 0.02786891162395477 -0.03015990927815437
0.002229772275313735 0.030730314552783966 -0.032121580094099045
0.002495136111974716 0.03346938267350197 -0.034110840409994125
0.002689530374482274 0.03613617271184921 -0.036068037152290344
0.00281157111749053 0.03878464177250862 -0.037928856909275055
0.0028735389932990074 0.041407614946365356 -0.03970186039805412
0.00289417477324605 0.04396664723753929 -0.04143286123871803
0.0028929314576089382 0.04642600938677788 -0.043164439499378204
0.0028857397846877575 0.04877588152885437 -0.044908296316862106
0.002882807282730937 0.051036860793828964 -0.04663988575339317
0.002889164024963975 0.053239878267049796 -0.048322346061468124
0.002906039822846651 0.05540503934025765 -0.04993171989917755
0.0029321631882339716 0.05753180384635925 -0.0514686442911625
0.002964876824989915 0.05960620939731597 -0.05294976010918617
0.003001011675223708 0.06161226332187652 -0.054394133388996124
0.003037509974092245 0.06353794038295746 -0.05581609532237053
0.0030718371272087097 0.06537608802318573 -0.05722415447235107
0.003102224553003907 0.06712415814399719 -0.058621373027563095
0.0031277663074433804 0.06878362596035004 -0.06000596657395362
0.0031484069768339396 0.07035940885543823 -0.061372097581624985
0.0031648471485823393 0.07185898721218109 -0.06271083652973175
0.0031782679725438356 0.07329076528549194 -0.06401216983795166
0.0031899327877908945 0.07466179877519608 -0.06526768952608109
0.0032009012065827847 0.07597637176513672 -0.06647229939699173
0.003211877541616559 0.07723541557788849 -0.06762487441301346
0.003223159583285451 0.07843665778636932 -0.06872812658548355
0.003234656061977148 0.07957514375448227 -0.06978796422481537
0.0032459525391459465 0.08064404875040054 -0.07081252336502075
0.0032564047724008556 0.08163616061210632 -0.07181039452552795
0.0032652423251420264 0.08254748582839966 -0.07278633862733841
0.003271671943366527 0.08338021486997604 -0.0737377479672432
0.0032749734818935394 0.08414298295974731 -0.07465432584285736
0.0032745779026299715 0.08484935015439987 -0.07551991939544678
0.0032701271120458846 0.08551567047834396 -0.0763150304555893
0.0032615121454000473 0.086161769926548 -0.07701603323221207
0.0032488894648849964 0.08681172877550125 -0.07759423553943634
0.003232676535844803 0.0874900370836258 -0.07802043855190277
0.0032135276123881336 0.08821550756692886 -0.07827223837375641
0.003192296950146556 0.08899562805891037 -0.07834070920944214
0.0031699857208877806 0.08982300758361816 -0.07823464274406433
0.003147683572024107 0.09067459404468536 -0.07798152416944504
0.0031265048310160637 0.09151361137628555 -0.07762518525123596

CELLS 50 150
2 0 1
2 1 2
2 2 3
2 3 4
2 4 5
2 5 6
2 6 7
2 7 8
2 8 9
2 9 10
2 10 11
2 11 12
2 12 13
2 13 14
2 14 15
2 15 16
2 16 17
2 17 18
2 18 19
2 19 20
2 20 21
2 21 22
2 22 23
2 23 24
2 24 25
2 25 26
2 26 27
2 27 28
2 28 29
2 29 30
2 30 31
2 31 32
2 32 33
2 33 34
2 34 35
2 35 36
2 36 37
2 37 38
2 38 39
2 39 40
2 40 41
2 41 42
2 42 43
2 43 44
2 44 45
2 45 46
2 46 47
2 47 48
2 48 49
2 49 50

CELL_TYPES 50
4
4
4
4
4
4
4
4
4
4
4
4
4
4
4
4
4
4
4
4
4
4
4
4
4
4
4
4
4
4
4
4
4
4
4
4
4
4
4
4
4
4
4
4
4
4
4
4
4
4

POINT_DATA 51

SCALARS zone float
LOOKUP_TABLE default
1.0
1.0
1.0
1.0
1.0
1.0
1.0
1.0
1.0
1.0
1.0
1.0
1.0
1.0
1.0
1.0
1.0
1.0
1.0
1.0
1.0
1.0
1.0
1.0
1.0
1.0
1.0
1.0
1.0
1.0
1.0
1.0
1.0
1.0
1.0
1.0
1.0
1.0
1.0
1.0
1.0
1.0
1.0
1.0
1.0
1.0
1.0
1.0
1.0
1.0
1.0

VECTORS normals float
-0.00011546154564712197 0.001597445458173752 -0.0013140412047505379
-0.00022074757725931704 0.003051459789276123 -0.002739914692938328
-0.0002789688587654382 0.002844105940312147 -0.0028688241727650166
-0.00040420211735181516 0.002721910597756505 -0.0028962460346519947
-0.00044531151070259506 0.0026705386117100716 -0.0028392637614160776
-0.0003278949297964573 0.002794221742078662 -0.002573658712208271
-9.220571519108489e-5 0.0029553179629147053 -0.0022634670604020357
0.00013812060933560133 0.0029316393192857504 -0.002173480810597539
0.0002748481638263911 0.0028797921258956194 -0.0021170652471482754
0.0003148686664644629 0.002878669649362564 -0.0020001977682113647
0.00028992604347877204 0.0028002362232655287 -0.0019754660315811634
0.00022987906413618475 0.002702929312363267 -0.001973227132111788
0.00015821750275790691 0.0026576295495033264 -0.0019090082496404648
9.200429485645145e-5 0.002635721582919359 -0.0018169122049584985
4.130187880946323e-5 0.0025910022668540478 -0.001752001466229558
9.696207598608453e-6 0.0025091967545449734 -0.001731288619339466
-4.217552486807108e-6 0.0024046162143349648 -0.0017377177719026802
-5.062076070316834e-6 0.002305425237864256 -0.0017377239419147374
1.7121039945777738e-6 0.0022319993004202843 -0.0017070246394723654
1.1616368283284828e-5 0.002184089506044984 -0.0016459162579849362
2.149965257558506e-5 0.002145962091162801 -0.0015731498133391142
2.9418395570246506e-5 0.0021005861926823854 -0.0015090217348188162
3.442417073529214e-5 0.0020402309019118547 -0.0014627453638240695
3.63165709131863e-5 0.001965864095836878 -0.0014331672573462129
3.5412773286225274e-5 0.0018819136312231421 -0.0014150104252621531
3.2357384043280035e-5 0.001793109462596476 -0.001402638154104352
2.7964591936324723e-5 0.0017037689685821533 -0.0013909051194787025
2.309120463905856e-5 0.0016176255885511635 -0.0013753616949543357
1.854042238846887e-5 0.0015376779483631253 -0.0013524346286430955
1.493051149736857e-5 0.0014656774001196027 -0.001320036593824625
1.2542826880235225e-5 0.0014014075277373195 -0.001278425450436771
1.1316546078887768e-5 0.001342802308499813 -0.0012300634989514947
1.0972400559694506e-5 0.0012868059566244483 -0.0011785922106355429
1.1129222002637107e-5 0.0012301441747695208 -0.0011279141763225198
1.1389166502340231e-5 0.0011698654852807522 -0.0010815465357154608
1.1396474292268977e-5 0.001103695249184966 -0.0010422001359984279
1.0874458894249983e-5 0.0010305080795660615 -0.0010112161980941892
9.644884812587406e-6 0.0009517193539068103 -0.0009869079804047942
7.633578206878155e-6 0.000872026605065912 -0.0009636770701035858
4.865619757765671e-6 0.0007977497880347073 -0.0009339917451143265
1.4529367717841524e-6 0.0007345670601353049 -0.0008910850156098605
-2.4232347186625702e-6 0.0006863411399535835 -0.0008303534705191851
-6.532860879815417e-6 0.0006562103517353535 -0.0007480569183826447
-1.0618759006320033e-5 0.0006480296142399311 -0.0006396013195626438
-1.4417873899219556e-5 0.0006641352665610611 -0.0005022023688070476
-1.7680962628219277e-5 0.0007018903852440417 -0.00033900263952091336
-2.018977284024004e-5 0.0007527931593358517 -0.00016013404820114374
-2.1771005776827224e-5 0.0008037498337216674 1.879876981547568e-5
-2.2306650862446986e-5 0.0008394859032705426 0.00017959234537556767
-2.1740446754847653e-5 0.000845302769448608 0.00030472961952909827
-1.058942416420905e-5 0.0004195081710349769 0.000178170099388808

CELL_DATA 50

VECTORS liftinglineloading               float
0.1346864551305771 0.06422225385904312 0.0917188823223114
0.20215852558612823 0.10983718931674957 0.1568637639284134
-0.06872393935918808 0.028601963073015213 0.040847837924957275
0.13204827904701233 0.04077250137925148 0.05822916701436043
0.12808287143707275 0.07236747443675995 0.10335146635770798
-0.5589818954467773 0.23752507567405703 0.33922097086906433
-1.7277990579605103 0.5142515897750854 0.7344273328781128
-3.37664532661438 0.8355251550674437 1.193253517150879
-5.302474021911621 1.1593201160430908 1.6556806564331055
-7.48823356628418 1.4974571466445923 2.1385903358459473
-9.646122932434082 1.7985490560531618 2.568594217300415
-11.548819541931152 2.0396084785461426 2.91286301612854
-12.811537742614746 2.1668810844421387 3.0946269035339355
-13.807300567626953 2.26243257522583 3.231088638305664
-14.786655426025389 2.313627004623413 3.304201602935791
-15.320136070251465 2.314432144165039 3.305351495742798
-15.428153991699217 2.244148015975952 3.2049753665924072
-15.37093257904053 2.1823742389678955 3.116753578186035
-16.033170700073242 2.1743574142456055 3.10530424118042
-15.91680908203125 2.0901119709014893 2.9849891662597656
-15.883611679077147 2.0370991230010986 2.9092788696289062
-15.7749662399292 1.9401228427886963 2.770782709121704
-16.084821701049805 1.9773935079574587 2.8240106105804443
-15.8094482421875 1.8950655460357666 2.7064340114593506
-16.631175994873047 1.9048986434936521 2.720477342605591
-17.85172462463379 1.8574120998382568 2.6526594161987305
-18.356237411499023 1.8272823095321655 2.6096296310424805
-19.912687301635742 1.9347872734069826 2.763162612915039
-21.32807159423828 1.9429864883422854 2.774872303009033
-22.435949325561523 1.9120292663574219 2.7306606769561768
-23.300796508789062 1.8207013607025146 2.6002309322357178
-24.257658004760742 1.7054963111877444 2.4357011318206787
-24.83727264404297 1.668832540512085 2.3833398818969727
-25.18210792541504 1.5259932279586792 2.1793441772460938
-25.227336883544922 1.4554177522659302 2.078552007675171
-25.018882751464844 1.3604352474212646 1.9429029226303103
-24.568359375 1.224907398223877 1.7493489980697632
-23.65342903137207 1.1438379287719727 1.6335698366165163
-22.665283203125 1.0853687524795532 1.5500671863555908
-21.661785125732422 0.9936536550521852 1.4190844297409058
-20.659915924072266 0.9383692145347595 1.340130090713501
-18.602039337158203 0.9055992960929871 1.2933298349380493
-15.807901382446287 0.9398665428161621 1.3422685861587524
-13.235167503356934 0.9177784323692321 1.3107234239578247
-10.672307968139648 1.0391689538955688 1.4840869903564453
-9.037618637084961 1.0704126358032227 1.5287076234817505
-7.16753387451172 1.0549002885818481 1.5065537691116333
-5.507310390472412 1.0460258722305298 1.4938796758651733
-3.6483352184295654 1.0214799642562866 1.4588245153427124
-1.977447271347046 0.991435945034027 1.4159172773361206