# vtk DataFile Version 4.0
 
ASCII
DATASET UNSTRUCTURED_GRID
POINTS 51 float
0.0032294827979058027 0.0048919906839728355 0.005835841875523329
0.0029985597357153893 0.00521227577701211 0.009960349649190903
0.0027879877015948296 0.0058803134597837925 0.013978161849081516
0.0024406220763921738 0.006649657618254423 0.01791083998978138
0.001979583641514182 0.0075027975253760815 0.021759916096925735
0.0015499991131946445 0.008237719535827637 0.025543063879013065
0.0013237936655059457 0.00851383339613676 0.029290081933140755
0.00136558769736439 0.008555765263736248 0.03298131749033928
0.0016000348841771481 0.008711617439985275 0.03658631443977356
0.0019152839668095112 0.008720600046217442 0.040127888321876526
0.002229772275313735 0.008686275221407413 0.04359698295593262
0.002495136111974716 0.00874471478164196 0.04698168858885765
0.002689530374482274 0.008818348869681358 0.05028879642486572
0.00281157111749053 0.008823543787002563 0.05352561920881272
0.0028735389932990074 0.008771427907049656 0.056691184639930725
0.00289417477324605 0.008721578866243362 0.0597802810370922
0.0028929314576089382 0.00872937310487032 0.06278806179761887
0.0028857397846877575 0.008810026571154594 0.06571320444345474
0.002882807282730937 0.008931618183851242 0.06855848431587219
0.002889164024963975 0.00904620811343193 0.07132811099290848
0.002906039822846651 0.009122644551098347 0.07402480393648148
0.0029321631882339716 0.009161759167909622 0.07664849609136581
0.002964876824989915 0.00918518751859665 0.07919728755950928
0.003001011675223708 0.009217724204063416 0.08166901022195816
0.003037509974092245 0.009278004989027977 0.08406203240156174
0.0030718371272087097 0.009377098642289639 0.08637538552284241
0.003102224553003907 0.009518981911242008 0.08860872685909271
0.0031277663074433804 0.009701340459287167 0.09076225757598877
0.0031484069768339396 0.009916579350829124 0.0928366407752037
0.0031648471485823393 0.010153088718652725 0.0948328897356987
0.0031782679725438356 0.010397844016551971 0.09675215184688568
0.0031899327877908945 0.010639909654855728 0.09859537333250046
0.0032009012065827847 0.010872662998735905 0.10036314278841019
0.003211877541616559 0.011094639077782631 0.1020555794239044
0.003223159583285451 0.01130936574190855 0.10367237776517868
0.003234656061977148 0.01152452640235424 0.10521287471055984
0.0032459525391459465 0.011750699952244759 0.1066761314868927
0.0032564047724008556 0.011999055743217468 0.10806117951869965
0.0032652423251420264 0.012275787070393562 0.1093674749135971
0.003271671943366527 0.01257750391960144 0.11059530824422836
0.0032749734818935394 0.012890809215605259 0.11174585670232773
0.0032745779026299715 0.013194710947573187 0.11282096058130263
0.0032701271120458846 0.013463841751217842 0.11382284015417099
0.0032615121454000473 0.013667481951415539 0.11475417017936707
0.0032488894648849964 0.01376831438392401 0.11561822891235352
0.003232676535844803 0.013728378340601921 0.11641833186149597
0.0032135276123881336 0.01351852808147669 0.11715702712535858
0.003192296950146556 0.013127157464623451 0.11783532798290253
0.0031699857208877806 0.012565705925226212 0.11845224350690842
0.003147683572024107 0.011869912035763264 0.11900464445352554
0.0031265048310160637 0.011096774600446224 0.11948753893375398

CELLS 50 150
2 0 1
2 1 2
2 2 3
2 3 4
2 4 5
2 5 6
2 6 7
2 7 8
2 8 9
2 9 10
2 10 11
2 11 12
2 12 13
2 13 14
2 14 15
2 15 16
2 16 17
2 17 18
2 18 19
2 19 20
2 20 21
2 21 22
2 22 23
2 23 24
2 24 25
2 25 26
2 26 27
2 27 28
2 28 29
2 29 30
2 30 31
2 31 32
2 32 33
2 33 34
2 34 35
2 35 36
2 36 37
2 37 38
2 38 39
2 39 40
2 40 41
2 41 42
2 42 43
2 43 44
2 44 45
2 45 46
2 46 47
2 47 48
2 48 49
2 49 50

CELL_TYPES 50
4
4
4
4
4
4
4
4
4
4
4
4
4
4
4
4
4
4
4
4
4
4
4
4
4
4
4
4
4
4
4
4
4
4
4
4
4
4
4
4
4
4
4
4
4
4
4
4
4
4

POINT_DATA 51

SCALARS zone float
LOOKUP_TABLE default
1.0
1.0
1.0
1.0
1.0
1.0
1.0
1.0
1.0
1.0
1.0
1.0
1.0
1.0
1.0
1.0
1.0
1.0
1.0
1.0
1.0
1.0
1.0
1.0
1.0
1.0
1.0
1.0
1.0
1.0
1.0
1.0
1.0
1.0
1.0
1.0
1.0
1.0
1.0
1.0
1.0
1.0
1.0
1.0
1.0
1.0
1.0
1.0
1.0
1.0
1.0

VECTORS normals float
-0.00011546154564712197 0.00016014247376006097 0.002062253886833787
-0.00022074757725931704 0.0004941612714901567 0.00407115975394845
-0.0002789688587654382 0.0007186909206211567 0.0039752451702952385
-0.00040420211735181516 0.0008112420910038055 0.00389087712392211
-0.00044531151070259506 0.000794030784163624 0.0038161119446158405
-0.0003278949297964573 0.0005055180517956614 0.0037650826852768664
-9.220571519108489e-5 0.00015902284940239042 0.003719126107171178
0.00013812060933560133 9.889203647617251e-5 0.003648115787655115
0.0002748481638263911 8.24174567242153e-5 0.003573286347091198
0.0003148686664644629 -1.267107109015342e-5 0.0035053344909101725
0.00028992604347877204 1.2057545063726138e-5 0.0034269001334905624
0.00022987906413618475 6.603651854675263e-5 0.003345906501635909
0.00015821750275790691 3.941436079912819e-5 0.003271964844316244
9.200429485645145e-5 -2.3460368538508192e-5 0.0032011945731937885
4.130187880946323e-5 -5.098235851619393e-5 0.0031273316126316786
9.696207598608453e-6 -2.102748658217024e-5 0.0030484399758279324
-4.217552486807108e-6 4.4223907025298104e-5 0.002966460306197405
-5.062076070316834e-6 0.00010112255404237656 0.002885211259126663
1.7121039945777738e-6 0.0001180905383080244 0.002807455835863948
1.1616368283284828e-5 9.551334369461983e-5 0.002733160275965929
2.149965257558506e-5 5.7775632740231224e-5 0.0026601909194141626
2.9418395570246506e-5 3.127158561255783e-5 0.0025862387847155333
3.442417073529214e-5 2.7982430765405297e-5 0.002510255668312311
3.63165709131863e-5 4.640850966097787e-5 0.0024323726538568735
3.5412773286225274e-5 7.968739373609424e-5 0.00235318997874856
3.2357384043280035e-5 0.00012048862117808312 0.002273349557071924
2.7964591936324723e-5 0.00016212105401791632 0.002193436259403825
2.309120463905856e-5 0.00019879845785908404 0.002113956492394209
1.854042238846887e-5 0.0002258738095406443 0.002035316778346896
1.493051149736857e-5 0.0002406326384516433 0.0019577546045184135
1.2542826880235225e-5 0.0002434105408610776 0.001881240517832339
1.1316546078887768e-5 0.0002374092728132382 0.0018054946558549998
1.0972400559694506e-5 0.00022736465325579047 0.0017301024636253715
1.1129222002637107e-5 0.00021835153165739027 0.001654620049521327
1.1389166502340231e-5 0.00021494374959729612 0.0015786472940817475
1.1396474292268977e-5 0.00022066679957788438 0.0015018756967037916
1.0874458894249983e-5 0.00023726459767203775 0.0014241526369005442
9.644884812587406e-6 0.0002625438501127064 0.001345669967122376
7.633578206878155e-6 0.00028922411729581654 0.0012670648284256458
4.865619757765671e-6 0.00030751078156754375 0.001189194037579
1.4529367717841524e-6 0.0003086037468165159 0.00111282744910568
-2.4232347186625702e-6 0.00028651661705225706 0.001038488931953907
-6.532860879815417e-6 0.0002363855455769226 0.0009666038677096367
-1.0618759006320033e-5 0.0001522362290415913 0.0008976950775831937
-1.4417873899219556e-5 3.0447763492702506e-5 0.0008320792112499475
-1.7680962628219277e-5 -0.00012489306391216815 0.0007693988154642284
-2.018977284024004e-5 -0.00030061029247008264 0.000708501145709306
-2.1771005776827224e-5 -0.0004764110199175775 0.0006476108101196587
-2.2306650862446986e-5 -0.0006286227726377547 0.0005846566637046635
-2.1740446754847653e-5 -0.0007344656623899937 0.0005176457925699651
-1.058942416420905e-5 -0.0003865683975163847 0.00024144680355675516

CELL_DATA 50

VECTORS liftinglineloading               float
0.21613977849483493 -0.15693949162960052 3.88637589153129e-16
0.30431827902793884 -0.26167380809783936 6.479967217920112e-16
-0.3735191524028778 -0.2546694874763489 6.306515516750521e-16
0.033336542546749115 -0.050976771861314774 1.2623648326797078e-16
0.34198981523513794 -0.038778163492679596 9.602842301524056e-17
-0.1501406729221344 -0.25546756386756897 6.32627838359674e-16
-1.293810248374939 -0.7578849196434021 1.876790594747377e-15
-3.0125086307525635 -1.3956940174102783 3.4562311203940794e-15
-5.09377908706665 -2.0207319259643555 5.00404576513091e-15
-7.404720783233643 -2.645463466644287 6.551101468347003e-15
-9.704435348510742 -3.1967334747314453 7.916240328997761e-15
-11.731833457946777 -3.637238740921021 9.007087474954475e-15
-13.073856353759764 -3.865110874176025 9.571379130349396e-15
-14.125783920288086 -4.0332722663879395 9.98780509117508e-15
-14.935333251953125 -4.099301338195801 1.0151318025378945e-14
-15.544583320617676 -4.104398727416992 1.0163940510358929e-14
-15.733401298522947 -3.9857535362243657 9.870132733043671e-15
-15.771373748779297 -3.8850522041320805 9.620760304141374e-15
-16.561668395996094 -3.881453990936279 9.611850364569206e-15
-16.562461853027344 -3.741130113601684 9.264359333122866e-15
-16.653104782104492 -3.655926465988159 9.053364272994767e-15
-16.643537521362305 -3.48884105682373 8.639602230788197e-15
-17.08514404296875 -3.553549289703369 8.799843076716819e-15
-16.930387496948242 -3.412094354629517 8.449550060280961e-15
-17.84173583984375 -3.422328233718872 8.474892439029862e-15
-19.07765769958496 -3.3307082653045654 8.248009581910114e-15
-19.636255264282227 -3.27638053894043 8.113474491864767e-15
-21.068979263305664 -3.436504602432251 8.509998566561764e-15
-22.40351104736328 -3.4358413219451904 8.508356169677038e-15
-23.35394859313965 -3.3667006492614746 8.337139470817895e-15
-24.111305236816406 -3.200653314590454 7.925947326573295e-15
-24.6771183013916 -2.988193988800049 7.399822975781654e-15
-25.026460647583008 -2.9236550331115723 7.24000225819487e-15
-25.162567138671875 -2.6760151386260986 6.626758451195756e-15
-25.01904296875 -2.5574123859405518 6.333056129482432e-15
-24.65363883972168 -2.3964226245880127 5.934388637912408e-15
-24.07460594177246 -2.158367395401001 5.344879964644779e-15
-23.159000396728516 -2.017348289489746 4.995666491700197e-15
-22.083534240722656 -1.9150898456573486 4.742438368821999e-15
-21.034881591796875 -1.7609002590179446 4.360610739276337e-15
-19.994220733642578 -1.6603974103927612 4.1117300129999215e-15
-17.98298454284668 -1.5963226556777954 3.953058295606089e-15
-14.966044425964354 -1.640645742416382 4.062818095460722e-15
-12.5219087600708 -1.5944467782974243 3.948413166923346e-15
-10.084334373474121 -1.7826963663101196 4.414585372741276e-15
-8.48612117767334 -1.8338966369628906 4.541375617033404e-15
-6.696647644042969 -1.801513910293579 4.4611844668179974e-15
-5.110112190246582 -1.7855997085571287 4.421775411914044e-15
-3.3592553138732915 -1.740363955497742 4.309755304639663e-15
-1.799674153327942 -1.6853493452072144 4.1735202194691755e-15