# vtk DataFile Version 4.0
 
ASCII
DATASET UNSTRUCTURED_GRID
POINTS 51 float
0.0032294827979058027 0.004897697363048792 -0.005831053946167231
0.0029985597357153893 0.0089039271697402 -0.006862686015665532
0.0027879877015948296 0.012744696810841559 -0.008218260481953621
0.0024406220763921738 0.016484033316373825 -0.009658819064497948
0.001979583641514182 0.02012648619711399 -0.011167382821440697
0.0015499991131946445 0.023724542930722237 -0.01254807598888874
0.0013237936655059457 0.027366686612367627 -0.013470659032464026
0.00136558769736439 0.030994562432169914 -0.014152929186820984
0.0016000348841771481 0.03451772779226303 -0.014932415448129177
0.0019152839668095112 0.038003940135240555 -0.01555624883621931
0.002229772275313735 0.041426289826631546 -0.016124848276376724
0.002495136111974716 0.0447494275867939 -0.016770146787166595
0.002689530374482274 0.047993503510951996 -0.01741693541407585
0.00281157111749053 0.05118025094270707 -0.017984120175242424
0.0028735389932990074 0.054306775331497185 -0.018482491374015808
0.00289417477324605 0.05735759809613228 -0.018969815224409103
0.0028929314576089382 0.06031833216547966 -0.01949978619813919
0.0028857397846877575 0.06318502873182297 -0.020087160170078278
0.002882807282730937 0.06596597284078598 -0.020700983703136444
0.002889164024963975 0.06867361813783646 -0.021294772624969482
0.002906039822846651 0.07131607085466385 -0.021838324144482613
0.0029321631882339716 0.07389310747385025 -0.022332442924380302
0.002964876824989915 0.07639911025762558 -0.02279810793697834
0.003001011675223708 0.0788276270031929 -0.02325936034321785
0.003037509974092245 0.08117382973432541 -0.02373426966369152
0.0030718371272087097 0.08343483507633209 -0.024233568459749222
0.003102224553003907 0.08560960739850998 -0.02476111240684986
0.0031277663074433804 0.08769875764846802 -0.025314657017588615
0.0031484069768339396 0.0897042453289032 -0.025886837393045422
0.0031648471485823393 0.09162910282611847 -0.026466399431228638
0.0031782679725438356 0.09347669780254364 -0.027040712535381317
0.0031899327877908945 0.09524988383054733 -0.027599172666668892
0.0032009012065827847 0.09695038199424744 -0.028135359287261966
0.003211877541616559 0.0985785648226738 -0.028647851198911667
0.003223159583285451 0.100133515894413 -0.02914007194340229
0.003234656061977148 0.10161323845386505 -0.02961946651339531
0.0032459525391459465 0.1030149906873703 -0.030096296221017838
0.0032564047724008556 0.10433587431907654 -0.030581390485167503
0.0032652423251420264 0.10557426512241364 -0.031080752611160282
0.003271671943366527 0.10673105716705322 -0.03159109875559807
0.0032749734818935394 0.10780972242355347 -0.03209943324327469
0.0032745779026299715 0.10881572216749191 -0.03258540853857994
0.0032701271120458846 0.10975564271211624 -0.03302442282438278
0.0032615121454000473 0.11063746362924576 -0.03338669613003731
0.0032488894648849964 0.11147088557481766 -0.03363603726029396
0.003232676535844803 0.11226576566696167 -0.033735644072294235
0.0032135276123881336 0.11302968114614488 -0.033657256513834
0.003192296950146556 0.1137656420469284 -0.0333896167576313
0.0031699857208877806 0.11447067558765411 -0.03294382244348526
0.003147683572024107 0.11513550579547882 -0.03235452249646187
0.0031265048310160637 0.11574532091617584 -0.03167698159813881

CELLS 50 150
2 0 1
2 1 2
2 2 3
2 3 4
2 4 5
2 5 6
2 6 7
2 7 8
2 8 9
2 9 10
2 10 11
2 11 12
2 12 13
2 13 14
2 14 15
2 15 16
2 16 17
2 17 18
2 18 19
2 19 20
2 20 21
2 21 22
2 22 23
2 23 24
2 24 25
2 25 26
2 26 27
2 27 28
2 28 29
2 29 30
2 30 31
2 31 32
2 32 33
2 33 34
2 34 35
2 35 36
2 36 37
2 37 38
2 38 39
2 39 40
2 40 41
2 41 42
2 42 43
2 43 44
2 44 45
2 45 46
2 46 47
2 47 48
2 48 49
2 49 50

CELL_TYPES 50
4
4
4
4
4
4
4
4
4
4
4
4
4
4
4
4
4
4
4
4
4
4
4
4
4
4
4
4
4
4
4
4
4
4
4
4
4
4
4
4
4
4
4
4
4
4
4
4
4
4

POINT_DATA 51

SCALARS zone float
LOOKUP_TABLE default
1.0
1.0
1.0
1.0
1.0
1.0
1.0
1.0
1.0
1.0
1.0
1.0
1.0
1.0
1.0
1.0
1.0
1.0
1.0
1.0
1.0
1.0
1.0
1.0
1.0
1.0
1.0
1.0
1.0
1.0
1.0
1.0
1.0
1.0
1.0
1.0
1.0
1.0
1.0
1.0
1.0
1.0
1.0
1.0
1.0
1.0
1.0
1.0
1.0
1.0
1.0

VECTORS normals float
-0.00011546154564712197 0.0020031151361763477 -0.0005158161511644721
-0.00022074757725931704 0.003923499491065741 -0.001193603384308517
-0.0002789688587654382 0.0037900528404861684 -0.0013980665244162083
-0.00040420211735181516 0.0036908951587975025 -0.0014745612861588597
-0.00044531151070259506 0.0036202545743435626 -0.0014446285786107183
-0.0003278949297964573 0.003620100207626819 -0.0011516378726810217
-9.220571519108489e-5 0.003635010216385126 -0.000802426366135478
0.00013812060933560133 0.003575520357117057 -0.0007308783242478967
0.0002748481638263911 0.0035046883858740325 -0.0007016599993221462
0.0003148686664644629 0.003454280784353614 -0.0005962163559161127
0.00028992604347877204 0.003372743958607316 -0.0006069493247196078
0.00022987906413618475 0.003283607540652156 -0.0006460438598878682
0.00015821750275790691 0.0032154121436178684 -0.0006069862865842879
9.200429485645145e-5 0.0031566352117806673 -0.0005327776889316738
4.130187880946323e-5 0.0030886733438819647 -0.0004928476409986615
9.696207598608453e-6 0.0030057786498218775 -0.0005086479941383004
-4.217552486807108e-6 0.002913713688030839 -0.0005586724728345871
-5.062076070316834e-6 0.0028238187078386545 -0.0006005979375913739
1.7121039945777738e-6 0.002744298195466399 -0.0006038060528226197
1.1616368283284828e-5 0.0026750515680760145 -0.0005686705699190497
2.149965257558506e-5 0.002609743969514966 -0.0005188352079130709
2.9418395570246506e-5 0.0025415176060050726 -0.0004798921581823379
3.442417073529214e-5 0.0024672599975019693 -0.0004634586221072823
3.63165709131863e-5 0.002387360669672489 -0.00046808051411062484
3.5412773286225274e-5 0.002303602173924446 -0.0004871039418503642
3.2357384043280035e-5 0.002217889530584216 -0.0005134211387485266
2.7964591936324723e-5 0.002131961053237319 -0.0005405442789196968
2.309120463905856e-5 0.0020473196636885405 -0.0005628629587590694
1.854042238846887e-5 0.001965173054486513 -0.000575871323235333
1.493051149736857e-5 0.0018862263532355428 -0.0005769373965449631
1.2542826880235225e-5 0.0018103924812749028 -0.0005663865595124662
1.1316546078887768e-5 0.001736839418299496 -0.000547323317732662
1.0972400559694506e-5 0.0016643368871882558 -0.000524339615367353
1.1129222002637107e-5 0.0015915663680061696 -0.0005023560370318592
1.1389166502340231e-5 0.0015173394931480289 -0.000485807511722669
1.1396474292268977e-5 0.0014407404232770205 -0.0004781123425345868
1.0874458894249983e-5 0.0013613159535452724 -0.0004809615202248096
9.644884812587406e-6 0.0012796360533684492 -0.0004922283696942031
7.633578206878155e-6 0.0011975920060649514 -0.0005048536695539951
4.865619757765671e-6 0.0011177288834005594 -0.0005093403742648661
1.4529367717841524e-6 0.001042332616634667 -0.0004971558228135109
-2.4232347186625702e-6 0.0009729588637128472 -0.0004624954890459776
-6.532860879815417e-6 0.0009108710801228881 -0.0004006433009635657
-1.0618759006320033e-5 0.0008576214895583688 -0.00030580651946365833
-1.4417873899219556e-5 0.0008141508442349733 -0.00017447423306293786
-1.7680962628219277e-5 0.0007793973782099783 -1.0609043783915695e-5
-2.018977284024004e-5 0.0007499378989450634 0.00017301339539699256
-2.1771005776827224e-5 0.0007205000729300082 0.0003567168314475566
-2.2306650862446986e-5 0.0006849336205050349 0.0005175480036996305
-2.1740446754847653e-5 0.0006373202195391059 0.0006334192003123462
-1.058942416420905e-5 0.0003049055812880397 0.00033876876113936305

CELL_DATA 50

VECTORS liftinglineloading               float
0.12202870845794678 0.01834355667233467 0.10403148084878923
0.17197148501873016 0.029519382864236828 0.16741274297237396
-0.07005041837692261 0.010042395442724228 0.05695325508713722
0.14444158971309662 0.012884717434644697 0.07307286560535431
0.12075073271989822 0.022868972271680832 0.12969638407230377
-0.5371266007423401 0.07080448418855667 0.4015522003173828
-1.6510881185531618 0.1521545797586441 0.8629115223884583
-3.2302067279815674 0.24870690703392026 1.4104869365692139
-5.094614028930664 0.3464661240577698 1.9649070501327515
-7.185732841491699 0.44765862822532654 2.5387983322143555
-9.292085647583008 0.5391003489494324 3.057389974594116
-10.442069053649902 0.5954432487487793 3.3769266605377197
-11.695725440979004 0.6374525427818298 3.6151731014251713
-12.710400581359863 0.666197657585144 3.7781944274902344
-13.420308113098145 0.6737847328186035 3.821223020553589
-13.930487632751465 0.6738978624343872 3.821864604949951
-14.008958816528319 0.6464723348617554 3.666326761245728
-13.914367675781252 0.6292616128921509 3.5687198638916016
-14.476018905639647 0.6261938810348511 3.5513219833374023
-14.312493324279783 0.6017558574676514 3.412726879119873
-14.190503120422363 0.5854425430297852 3.320209503173828
-14.19351863861084 0.5601695775985718 3.176879644393921
-14.448033332824707 0.5737106800079346 3.253674983978272
-14.135342597961424 0.5497533082962036 3.1178059577941895
-14.945356369018555 0.5556094646453857 3.151017904281616
-16.208803176879883 0.5439797639846802 3.0850625038146973
-16.653837203979492 0.5348625779151917 3.033356189727783
-18.88062858581543 0.5783261060714722 3.2798502445220943
-20.348745346069336 0.5829800367355347 3.3062441349029537
-21.534700393676758 0.5758541822433472 3.265831232070923
-22.701189041137695 0.5498242974281311 3.118208646774292
-23.62444305419922 0.5166218280792236 2.929908037185669
-24.300331115722656 0.5052773952484131 2.865570545196533
-24.87773895263672 0.4635392129421234 2.628861427307129
-24.92837142944336 0.44230285286903376 2.5084240436553955
-24.730314254760742 0.41364425420761103 2.345893144607544
-24.290342330932617 0.3721691966056824 2.1106762886047363
-23.40553092956543 0.34754478931427 1.9710243940353391
-22.430665969848633 0.3296608328819275 1.8695994615554812
-21.44589614868164 0.3021019995212555 1.7133057117462158
-20.390098571777344 0.2855527400970459 1.6194500923156738
-18.377710342407227 0.2750212550163269 1.559723138809204
-15.650334358215332 0.2845550775527954 1.613792061805725
-13.089805603027344 0.2775813639163971 1.574242115020752
-10.54039192199707 0.3134846091270447 1.7778595685958862
-8.9025239944458 0.32271695137023926 1.8302186727523806
-7.0390591621398935 0.3176589012145996 1.8015331029891966
-5.385611534118652 0.31476354598999023 1.785112738609314
-3.547464370727539 0.30699095129966736 1.7410322427749632
-1.8844115734100342 0.2964121997356415 1.6810370683670042