# vtk DataFile Version 4.0
 
ASCII
DATASET UNSTRUCTURED_GRID
POINTS 51 float
0.0032294827979058027 0.00715705705806613 -0.0026009920984506607
0.0029985597357153893 0.011142370291054249 -0.0014912968035787344
0.0027879877015948296 0.015146360732614994 -0.0007448741234838963
0.0024406220763921738 0.01910500042140484 -0.00012276615598239005
0.001979583641514182 0.02301374077796936 0.00039200609899125993
0.0015499991131946445 0.026820095255970955 0.0009953182889148593
0.0013237936655059457 0.03043557517230511 0.002017411170527339
0.00136558769736439 0.03391854465007782 0.0032404852099716663
0.0016000348841771481 0.037359438836574554 0.004327013157308102
0.0019152839668095112 0.040690500289201736 0.005529862828552723
0.002229772275313735 0.04393864423036575 0.006748616695404054
0.002495136111974716 0.04713921621441841 0.007851339876651764
0.002689530374482274 0.05027206242084503 0.008913244120776653
0.00281157111749053 0.053315456956624985 0.010015420615673065
0.0028735389932990074 0.05627229437232018 0.011147080920636654
0.00289417477324605 0.05915804579854012 0.01225045695900917
0.0028929314576089382 0.06198710203170777 0.01327185519039631
0.0028857397846877575 0.06476341933012009 0.01419652160257101
0.002882807282730937 0.06747869402170181 0.015055407769978045
0.002889164024963975 0.07012049108743668 0.015894996002316475
0.002906039822846651 0.07268069684505463 0.016745492815971375
0.0029321631882339716 0.07515953481197357 0.017606092616915703
0.002964876824989915 0.07756262272596359 0.018455812707543373
0.003001011675223708 0.07989641278982162 0.01927061751484871
0.003037509974092245 0.08216573297977448 0.020032435655593872
0.0030718371272087097 0.08437346667051315 0.020730530843138695
0.003102224553003907 0.08652064949274063 0.021361052989959717
0.0031277663074433804 0.08860667794942856 0.021926242858171463
0.0031484069768339396 0.09062957763671875 0.022433465346693993
0.0031648471485823393 0.09258633106946945 0.02289397642016411
0.0031782679725438356 0.09447355568408966 0.023320406675338745
0.0031899327877908945 0.09628840535879135 0.023723360151052475
0.0032009012065827847 0.09802917391061783 0.0241092536598444
0.003211877541616559 0.09969546645879745 0.024479513987898827
0.003223159583285451 0.10128819942474365 0.024830713868141174
0.003234656061977148 0.10280937701463698 0.025155410170555115
0.0032459525391459465 0.10426174849271774 0.025443339720368385
0.0032564047724008556 0.10564821213483809 0.025683674961328506
0.0032652423251420264 0.1069703698158264 0.025870412588119503
0.003271671943366527 0.10822735726833344 0.02600683644413948
0.0032749734818935394 0.10941567271947861 0.02610593661665916
0.0032745779026299715 0.11052988469600677 0.026188069954514507
0.0032701271120458846 0.11156338453292847 0.026277830824255943
0.0032615121454000473 0.11250820010900497 0.026405004784464836
0.0032488894648849964 0.1133546382188797 0.026605779305100438
0.003232676535844803 0.1140928268432617 0.026916958391666412
0.0032135276123881336 0.11471520364284515 0.027366802096366886
0.003192296950146556 0.11521874368190765 0.0279665645211935
0.0031699857208877806 0.11560642719268797 0.028705153614282608
0.003147683572024107 0.11588753759860992 0.029547916725277897
0.0031265048310160637 0.11607687920331955 0.030439587309956547

CELLS 50 150
2 0 1
2 1 2
2 2 3
2 3 4
2 4 5
2 5 6
2 6 7
2 7 8
2 8 9
2 9 10
2 10 11
2 11 12
2 12 13
2 13 14
2 14 15
2 15 16
2 16 17
2 17 18
2 18 19
2 19 20
2 20 21
2 21 22
2 22 23
2 23 24
2 24 25
2 25 26
2 26 27
2 27 28
2 28 29
2 29 30
2 30 31
2 31 32
2 32 33
2 33 34
2 34 35
2 35 36
2 36 37
2 37 38
2 38 39
2 39 40
2 40 41
2 41 42
2 42 43
2 43 44
2 44 45
2 45 46
2 46 47
2 47 48
2 48 49
2 49 50

CELL_TYPES 50
4
4
4
4
4
4
4
4
4
4
4
4
4
4
4
4
4
4
4
4
4
4
4
4
4
4
4
4
4
4
4
4
4
4
4
4
4
4
4
4
4
4
4
4
4
4
4
4
4
4

POINT_DATA 51

SCALARS zone float
LOOKUP_TABLE default
1.0
1.0
1.0
1.0
1.0
1.0
1.0
1.0
1.0
1.0
1.0
1.0
1.0
1.0
1.0
1.0
1.0
1.0
1.0
1.0
1.0
1.0
1.0
1.0
1.0
1.0
1.0
1.0
1.0
1.0
1.0
1.0
1.0
1.0
1.0
1.0
1.0
1.0
1.0
1.0
1.0
1.0
1.0
1.0
1.0
1.0
1.0
1.0
1.0
1.0
1.0

VECTORS normals float
-0.00011546154564712197 0.0019926566164940596 0.0005548476474359632
-0.00022074757725931704 0.003994652070105076 0.0009280590456910431
-0.0002789688587654382 0.003981315530836582 0.0006842653383500874
-0.00040420211735181516 0.003933689557015896 0.0005684401257894933
-0.00044531151070259506 0.003857546718791127 0.0005590422661043704
-0.0003278949297964573 0.0037109176628291607 0.0008127025212161243
-9.220571519108489e-5 0.0035492242313921456 0.0011225834023207426
0.00013812060933560133 0.0034619306679815054 0.0011548009933903813
0.0002748481638263911 0.0033859792165458202 0.0011446888092905283
0.0003148686664644629 0.0032896031625568867 0.0012108018854632974
0.00028992604347877204 0.0032243565656244755 0.0011607385240495205
0.00022987906413618475 0.0031667095609009266 0.0010823134798556566
0.00015821750275790691 0.0030881217680871487 0.0010820404859259725
9.200429485645145e-5 0.003000115044414997 0.001116918632760644
4.130187880946323e-5 0.0029212934896349907 0.0011175181716680527
9.696207598608453e-6 0.002857404761016369 0.0010623872512951493
-4.217552486807108e-6 0.0028026863001286983 0.0009730322635732592
-5.062076070316834e-6 0.0027457978576421738 0.0008917762897908689
1.7121039945777738e-6 0.00267853494733572 0.0008492376655340194
1.1616368283284828e-5 0.002600997919216752 0.000845042639411986
2.149965257558506e-5 0.0025195220950990915 0.0008555475506000221
2.9418395570246506e-5 0.002440965035930276 0.0008551600622013212
3.442417073529214e-5 0.00236843922175467 0.0008322630892507732
3.63165709131863e-5 0.0023015551269054413 0.0007883106591179967
3.5412773286225274e-5 0.0022385299671441317 0.0007299567805603147
3.2357384043280035e-5 0.0021774591878056526 0.0006643090746365488
2.7964591936324723e-5 0.0021166044753044844 0.000597855425439775
2.309120463905856e-5 0.0020544622093439102 0.0005362062365747988
1.854042238846887e-5 0.0019898253958672285 0.00048386736307293177
1.493051149736857e-5 0.0019219886744394898 0.0004434707807376981
1.2542826880235225e-5 0.0018510391237214208 0.000414691079640761
1.1316546078887768e-5 0.0017778087640181184 0.0003944238123949617
1.0972400559694506e-5 0.0017035278724506497 0.0003780770057346672
1.1129222002637107e-5 0.001629514968954027 0.00036073007504455745
1.1389166502340231e-5 0.0015569583047181368 0.00033794812043197453
1.1396474292268977e-5 0.0014867739519104362 0.00030631275149062276
1.0874458894249983e-5 0.0014194149989634752 0.0002641330938786268
9.644884812587406e-6 0.0013543114764615893 0.0002135357353836298
7.633578206878155e-6 0.0012895719846710563 0.00016157992649823427
4.865619757765671e-6 0.001222651801072061 0.00011776270548580213
1.4529367717841524e-6 0.0011512644123286009 9.061674791155383e-5
-2.4232347186625702e-6 0.0010738548589870334 8.59465726534836e-5
-6.532860879815417e-6 0.0009891591034829617 0.00010846825171029195
-1.0618759006320033e-5 0.0008956252713687718 0.0001639745314605534
-1.4417873899219556e-5 0.0007923124358057977 0.00025597630883567035
-1.7680962628219277e-5 0.0006802824791520834 0.0003805109881795943
-2.018977284024004e-5 0.0005629585357382894 0.0005248029483482242
-2.1771005776827224e-5 0.00044561290997080505 0.0006691758753731847
-2.2306650862446986e-5 0.0003343959106132388 0.0007906765677034855
-2.1740446754847653e-5 0.00023522587434854358 0.0008672172552905977
-1.058942416420905e-5 9.467159543419257e-5 0.00044583514682017267

CELL_DATA 50

VECTORS liftinglineloading               float
0.1214473769068718 -0.03589717298746109 0.09862667322158813
0.18336094915866852 -0.06094486638903617 0.16744464635849
-0.06910213083028793 -0.018171755596995354 0.04992648959159851
0.13345177471637726 -0.024471860378980637 0.06723587960004807
0.16083070635795593 -0.03860614448785782 0.10606951266527176
-0.44796210527420044 -0.12659771740436554 0.347824364900589
-1.5234447717666626 -0.28406286239624023 0.7804563045501709
-3.067789077758789 -0.47454819083213806 1.303810477256775
-4.912278652191162 -0.6673173904418945 1.8334394693374636
-6.966582775115968 -0.8651031255722046 2.3768513202667236
-9.045450210571289 -1.0441689491271973 2.868830680847168
-10.723334312438965 -1.1821955442428589 3.2480556964874268
-11.864622116088867 -1.2577544450759888 3.455651998519898
-12.7813138961792 -1.3103665113449097 3.6002023220062256
-13.426257133483887 -1.322991132736206 3.6348884105682377
-13.896552085876465 -1.3215796947479248 3.631010532379151
-13.967204093933105 -1.2679393291473389 3.4836347103118896
-13.895750999450682 -1.2353341579437256 3.3940525054931636
-14.509827613830565 -1.2318055629730225 3.3843581676483154
-14.421657562255858 -1.1868268251419067 3.260780096054077
-14.299496650695799 -1.154890775680542 3.1730363368988037
-14.452411651611326 -1.1102005243301392 3.050250768661499
-14.839995384216309 -1.1400477886199951 3.132255792617798
-14.63022994995117 -1.095224142074585 3.009103775024414
-15.513259887695312 -1.1068741083145142 3.041111707687378
-16.813692092895508 -1.083319067955017 2.9763948917388916
-17.322216033935547 -1.0664585828781128 2.9300708770751953
-18.989953994750977 -1.1382699012756348 3.127370834350586
-20.43580436706543 -1.1468733549118042 3.1510086059570312
-22.48607063293457 -1.140116810798645 3.1324450969696045
-23.509441375732422 -1.086291790008545 2.9845621585845947
-24.310762405395508 -1.0166016817092896 2.7930901050567627
-24.873350143432617 -0.9948174953460693 2.733238697052002
-25.196016311645508 -0.9095068573951721 2.498849630355835
-25.217498779296875 -0.8676832318305968 2.3839399814605713
-24.985605239868164 -0.8113602995872498 2.229194164276123
-24.513822555541992 -0.7307018637657166 2.00758695602417
-23.585371017456055 -0.6825363636016846 1.8752533197402956
-22.583837509155273 -0.6477404236793518 1.7796522378921509
-21.571836471557617 -0.5933622121810913 1.630249261856079
-20.56211280822754 -0.5602815747261047 1.5393608808517456
-18.532054901123047 -0.5401479005813599 1.4840441942214966
-15.48095703125 -0.5598255395889282 1.5381081104278564
-12.976174354553223 -0.5458308458328247 1.4996579885482788
-10.46707820892334 -0.6158301830291748 1.6919795274734495
-8.850790023803711 -0.6342660188674927 1.7426315546035767
-7.006832122802734 -0.6245282888412476 1.715877413749695
-5.367160320281982 -0.6191282272338867 1.7010408639907837
-3.5478837490081787 -0.6047120690345764 1.6614327430725098
-1.903526425361633 -0.5856876969337463 1.609163761138916