# vtk DataFile Version 4.0
 
ASCII
DATASET UNSTRUCTURED_GRID
POINTS 51 float
0.0032294827979058027 0.005835841875523329 -0.0048919906839728355
0.0029985597357153893 0.009960349649190903 -0.00521227577701211
0.0027879877015948296 0.013978161849081516 -0.0058803134597837925
0.0024406220763921738 0.01791083998978138 -0.006649657618254423
0.001979583641514182 0.021759916096925735 -0.0075027975253760815
0.0015499991131946445 0.025543063879013065 -0.008237719535827637
0.0013237936655059457 0.029290081933140755 -0.00851383339613676
0.00136558769736439 0.03298131749033928 -0.008555765263736248
0.0016000348841771481 0.03658631443977356 -0.008711617439985275
0.0019152839668095112 0.040127888321876526 -0.008720600046217442
0.002229772275313735 0.04359698295593262 -0.008686275221407413
0.002495136111974716 0.04698168858885765 -0.00874471478164196
0.002689530374482274 0.05028879642486572 -0.008818348869681358
0.00281157111749053 0.05352561920881272 -0.008823543787002563
0.0028735389932990074 0.056691184639930725 -0.008771427907049656
0.00289417477324605 0.0597802810370922 -0.008721578866243362
0.0028929314576089382 0.06278806179761887 -0.00872937310487032
0.0028857397846877575 0.06571320444345474 -0.008810026571154594
0.002882807282730937 0.06855848431587219 -0.008931618183851242
0.002889164024963975 0.07132811099290848 -0.00904620811343193
0.002906039822846651 0.07402480393648148 -0.009122644551098347
0.0029321631882339716 0.07664849609136581 -0.009161759167909622
0.002964876824989915 0.07919728755950928 -0.00918518751859665
0.003001011675223708 0.08166901022195816 -0.009217724204063416
0.003037509974092245 0.08406203240156174 -0.009278004989027977
0.0030718371272087097 0.08637538552284241 -0.009377098642289639
0.003102224553003907 0.08860872685909271 -0.009518981911242008
0.0031277663074433804 0.09076225757598877 -0.009701340459287167
0.0031484069768339396 0.0928366407752037 -0.009916579350829124
0.0031648471485823393 0.0948328897356987 -0.010153088718652725
0.0031782679725438356 0.09675215184688568 -0.010397844016551971
0.0031899327877908945 0.09859537333250046 -0.010639909654855728
0.0032009012065827847 0.10036314278841019 -0.010872662998735905
0.003211877541616559 0.1020555794239044 -0.011094639077782631
0.003223159583285451 0.10367237776517868 -0.01130936574190855
0.003234656061977148 0.10521287471055984 -0.01152452640235424
0.0032459525391459465 0.1066761314868927 -0.011750699952244759
0.0032564047724008556 0.10806117951869965 -0.011999055743217468
0.0032652423251420264 0.1093674749135971 -0.012275787070393562
0.003271671943366527 0.11059530824422836 -0.01257750391960144
0.0032749734818935394 0.11174585670232773 -0.012890809215605259
0.0032745779026299715 0.11282096058130263 -0.013194710947573187
0.0032701271120458846 0.11382284015417099 -0.013463841751217842
0.0032615121454000473 0.11475417017936707 -0.013667481951415539
0.0032488894648849964 0.11561822891235352 -0.01376831438392401
0.003232676535844803 0.11641833186149597 -0.013728378340601921
0.0032135276123881336 0.11715702712535858 -0.01351852808147669
0.003192296950146556 0.11783532798290253 -0.013127157464623451
0.0031699857208877806 0.11845224350690842 -0.012565705925226212
0.003147683572024107 0.11900464445352554 -0.011869912035763264
0.0031265048310160637 0.11948753893375398 -0.011096774600446224

CELLS 50 150
2 0 1
2 1 2
2 2 3
2 3 4
2 4 5
2 5 6
2 6 7
2 7 8
2 8 9
2 9 10
2 10 11
2 11 12
2 12 13
2 13 14
2 14 15
2 15 16
2 16 17
2 17 18
2 18 19
2 19 20
2 20 21
2 21 22
2 22 23
2 23 24
2 24 25
2 25 26
2 26 27
2 27 28
2 28 29
2 29 30
2 30 31
2 31 32
2 32 33
2 33 34
2 34 35
2 35 36
2 36 37
2 37 38
2 38 39
2 39 40
2 40 41
2 41 42
2 42 43
2 43 44
2 44 45
2 45 46
2 46 47
2 47 48
2 48 49
2 49 50

CELL_TYPES 50
4
4
4
4
4
4
4
4
4
4
4
4
4
4
4
4
4
4
4
4
4
4
4
4
4
4
4
4
4
4
4
4
4
4
4
4
4
4
4
4
4
4
4
4
4
4
4
4
4
4

POINT_DATA 51

SCALARS zone float
LOOKUP_TABLE default
1.0
1.0
1.0
1.0
1.0
1.0
1.0
1.0
1.0
1.0
1.0
1.0
1.0
1.0
1.0
1.0
1.0
1.0
1.0
1.0
1.0
1.0
1.0
1.0
1.0
1.0
1.0
1.0
1.0
1.0
1.0
1.0
1.0
1.0
1.0
1.0
1.0
1.0
1.0
1.0
1.0
1.0
1.0
1.0
1.0
1.0
1.0
1.0
1.0
1.0
1.0

VECTORS normals float
-0.00011546154564712197 0.002062253886833787 -0.00016014247376006097
-0.00022074757725931704 0.00407115975394845 -0.0004941612714901567
-0.0002789688587654382 0.0039752451702952385 -0.0007186909206211567
-0.00040420211735181516 0.00389087712392211 -0.0008112420910038055
-0.00044531151070259506 0.0038161119446158405 -0.000794030784163624
-0.0003278949297964573 0.0037650826852768664 -0.0005055180517956614
-9.220571519108489e-5 0.003719126107171178 -0.00015902284940239042
0.00013812060933560133 0.003648115787655115 -9.889203647617251e-5
0.0002748481638263911 0.003573286347091198 -8.24174567242153e-5
0.0003148686664644629 0.0035053344909101725 1.267107109015342e-5
0.00028992604347877204 0.0034269001334905624 -1.2057545063726138e-5
0.00022987906413618475 0.003345906501635909 -6.603651854675263e-5
0.00015821750275790691 0.003271964844316244 -3.941436079912819e-5
9.200429485645145e-5 0.0032011945731937885 2.3460368538508192e-5
4.130187880946323e-5 0.0031273316126316786 5.098235851619393e-5
9.696207598608453e-6 0.0030484399758279324 2.102748658217024e-5
-4.217552486807108e-6 0.002966460306197405 -4.4223907025298104e-5
-5.062076070316834e-6 0.002885211259126663 -0.00010112255404237656
1.7121039945777738e-6 0.002807455835863948 -0.0001180905383080244
1.1616368283284828e-5 0.002733160275965929 -9.551334369461983e-5
2.149965257558506e-5 0.0026601909194141626 -5.7775632740231224e-5
2.9418395570246506e-5 0.0025862387847155333 -3.127158561255783e-5
3.442417073529214e-5 0.002510255668312311 -2.7982430765405297e-5
3.63165709131863e-5 0.0024323726538568735 -4.640850966097787e-5
3.5412773286225274e-5 0.00235318997874856 -7.968739373609424e-5
3.2357384043280035e-5 0.002273349557071924 -0.00012048862117808312
2.7964591936324723e-5 0.002193436259403825 -0.00016212105401791632
2.309120463905856e-5 0.002113956492394209 -0.00019879845785908404
1.854042238846887e-5 0.002035316778346896 -0.0002258738095406443
1.493051149736857e-5 0.0019577546045184135 -0.0002406326384516433
1.2542826880235225e-5 0.001881240517832339 -0.0002434105408610776
1.1316546078887768e-5 0.0018054946558549998 -0.0002374092728132382
1.0972400559694506e-5 0.0017301024636253715 -0.00022736465325579047
1.1129222002637107e-5 0.001654620049521327 -0.00021835153165739027
1.1389166502340231e-5 0.0015786472940817475 -0.00021494374959729612
1.1396474292268977e-5 0.0015018756967037916 -0.00022066679957788438
1.0874458894249983e-5 0.0014241526369005442 -0.00023726459767203775
9.644884812587406e-6 0.001345669967122376 -0.0002625438501127064
7.633578206878155e-6 0.0012670648284256458 -0.00028922411729581654
4.865619757765671e-6 0.001189194037579 -0.00030751078156754375
1.4529367717841524e-6 0.00111282744910568 -0.0003086037468165159
-2.4232347186625702e-6 0.001038488931953907 -0.00028651661705225706
-6.532860879815417e-6 0.0009666038677096367 -0.0002363855455769226
-1.0618759006320033e-5 0.0008976950775831937 -0.0001522362290415913
-1.4417873899219556e-5 0.0008320792112499475 -3.0447763492702506e-5
-1.7680962628219277e-5 0.0007693988154642284 0.00012489306391216815
-2.018977284024004e-5 0.000708501145709306 0.00030061029247008264
-2.1771005776827224e-5 0.0006476108101196587 0.0004764110199175775
-2.2306650862446986e-5 0.0005846566637046635 0.0006286227726377547
-2.1740446754847653e-5 0.0005176457925699651 0.0007344656623899937
-1.058942416420905e-5 0.00024144680355675516 0.0003865683975163847

CELL_DATA 50

VECTORS liftinglineloading               float
0.14123480021953583 3.7942536469790964e-16 0.11645997315645217
0.21213328838348391 6.507586844747707e-16 0.19974243640899658
-0.07102324068546295 1.6050840246083524e-16 0.04926609247922897
0.13062646985054016 2.3364972392602367e-16 0.07171592861413956
0.134318545460701 4.1271672414031904e-16 0.12667836248874664
-0.5717959403991699 1.3751463431643319e-15 0.4220843613147735
-1.7656821012496946 2.973928654403349e-15 0.912811040878296
-3.4414172172546387 4.8152412741549796e-15 1.4779794216156006
-5.388914108276367 6.663474788360389e-15 2.0452721118927
-7.595582485198974 8.589717072392603e-15 2.6365087032318115
-9.766822814941406 1.0299871510701351e-14 3.161419630050659
-11.674379348754883 1.1658662282928913e-14 3.5784840583801274
-12.938328742980957 1.2370585004766682e-14 3.796999931335449
-13.928742408752441 1.2905149191844763e-14 3.961077928543091
-14.694482803344725 1.3118357549064038e-14 4.026519298553467
-15.261736869812012 1.313078013426847e-14 4.030332565307617
-15.408251762390138 1.2739923557021549e-14 3.910363912582397
-15.388925552368164 1.2402626567095416e-14 3.8068346977233887
-16.082128524780273 1.2366940221994643e-14 3.7958812713623042
-15.981029510498047 1.189155483880943e-14 3.6499674320220947
-15.942855834960938 1.1586645000654512e-14 3.5563790798187256
-15.850382804870605 1.1037927740060755e-14 3.3879570960998535
-16.164783477783203 1.1246119121133442e-14 3.4518587589263916
-15.901161193847658 1.0779955385644985e-14 3.3087756633758545
-16.73760414123535 1.0835094689412399e-14 3.3257000446319576
-17.972518920898438 1.0566008415695705e-14 3.243107318878174
-18.507713317871094 1.0400061108801432e-14 3.192171573638916
-20.074254989624023 1.1001175827512338e-14 3.3766765594482426
-21.517072677612305 1.1044437188260404e-14 3.3899548053741455
-22.646732330322266 1.086254109800228e-14 3.3341243267059326
-23.65627098083496 1.034733076673601e-14 3.1759865283966064
-24.460981369018555 9.676121530540968e-15 2.9699673652648926
-25.034223556518555 9.470288289193437e-15 2.9067890644073486
-25.370468139648438 8.6420848843566e-15 2.6525824069976807
-25.41057777404785 8.24000850869035e-15 2.529170036315918
-25.192733764648438 7.700050415804151e-15 2.363436222076416
-24.733455657958984 6.936657313410003e-15 2.129122257232666
-23.79903221130371 6.4777712850043554e-15 1.9882727861404417
-22.80377769470215 6.1481666247887104e-15 1.8871046304702757
-21.790904998779297 5.624961149533307e-15 1.726513147354126
-20.783994674682617 5.3147831899629395e-15 1.6313077211380005
-18.8326358795166 5.124903390660469e-15 1.573026418685913
-15.749077796936035 5.3337342816083336e-15 1.6371245384216309
-13.209323883056639 5.208198916627563e-15 1.59859299659729
-10.667760848999023 5.898506204684346e-15 1.810474395751953
-9.04619026184082 6.078103447523624e-15 1.865599513053894
-7.1827616691589355 5.992135532607943e-15 1.8392127752304077
-5.524284362792969 5.942583681677093e-15 1.8240034580230715
-3.6618542671203618 5.8035715989890324e-15 1.7813353538513186
-1.9852885007858274 5.632598845618699e-15 1.728857398033142