# vtk DataFile Version 4.0
 
ASCII
DATASET UNSTRUCTURED_GRID
POINTS 51 float
0.0032294827979058027 0.004370850045233965 -0.006235727109014988
0.0029985597357153893 0.00827192235738039 -0.007612599991261958
0.0027879877015948296 0.011979930102825165 -0.009297761134803295
0.0024406220763921738 0.015579485334455965 -0.011058742180466652
0.001979583641514182 0.019076598808169365 -0.012879027053713799
0.0015499991131946445 0.022540627047419548 -0.014568056911230087
0.0013237936655059457 0.026088504120707512 -0.015804562717676163
0.00136558769736439 0.029643109068274495 -0.016800427809357643
0.0016000348841771481 0.0330849327147007 -0.017884010449051857
0.0019152839668095112 0.03650350496172905 -0.01880931481719017
0.002229772275313735 0.03986327722668648 -0.019674027338624
0.002495136111974716 0.04311752691864967 -0.020606501027941704
0.002689530374482274 0.04629288986325264 -0.02153356932103634
0.00281157111749053 0.04941807687282562 -0.02237633801996708
0.0028735389932990074 0.0524892657995224 -0.02314530685544014
0.00289417477324605 0.05548600852489472 -0.023896673694252968
0.0028929314576089382 0.05838928371667861 -0.024682672694325447
0.0028857397846877575 0.06119387596845627 -0.025517661124467846
0.002882807282730937 0.06391073763370514 -0.02637152187526226
0.002889164024963975 0.06655633449554443 -0.027199039235711098
0.002906039822846651 0.06914135813713074 -0.027970828115940094
0.0029321631882339716 0.07166552543640137 -0.028687670826911926
0.002964876824989915 0.0741214007139206 -0.029369976371526718
0.003001011675223708 0.07650048285722733 -0.030041132122278214
0.003037509974092245 0.07879636436700821 -0.030718719586730003
0.0030718371272087097 0.08100524544715881 -0.03141317516565323
0.003102224553003907 0.0831257626414299 -0.03212825581431389
0.0031277663074433804 0.08515872061252594 -0.032861776649951935
0.0031484069768339396 0.08710671216249466 -0.03360657021403313
0.0031648471485823393 0.08897373080253601 -0.034351687878370285
0.0031782679725438356 0.09076423943042755 -0.03508484736084938
0.0031899327877908945 0.09248200803995132 -0.03579572215676308
0.0032009012065827847 0.0941292941570282 -0.03647807613015175
0.003211877541616559 0.09570661187171936 -0.03713052719831467
0.003223159583285451 0.09721274673938751 -0.03775639459490776
0.003234656061977148 0.09864506125450134 -0.038362931460142136
0.0032459525391459465 0.09999992698431015 -0.03896011784672737
0.0032564047724008556 0.10127349942922592 -0.03955848887562752
0.0032652423251420264 0.10246365517377853 -0.04016388580203056
0.003271671943366527 0.1035715639591217 -0.04077310860157013
0.0032749734818935394 0.10460182279348372 -0.04137352108955383
0.0032745779026299715 0.10556163638830185 -0.04194532707333565
0.0032701271120458846 0.10645972192287446 -0.042464591562747955
0.0032615121454000473 0.1073066145181656 -0.04290233924984932
0.0032488894648849964 0.10811512917280196 -0.04322336986660957
0.003232676535844803 0.10889830440282822 -0.0433918759226799
0.0032135276123881336 0.10966614633798599 -0.043380364775657654
0.003192296950146556 0.11042263358831407 -0.04317788779735565
0.0031699857208877806 0.11116383969783783 -0.04279523715376854
0.003147683572024107 0.11187750101089479 -0.0422661229968071
0.0031265048310160637 0.11254404485225677 -0.04164431244134903

CELLS 50 150
2 0 1
2 1 2
2 2 3
2 3 4
2 4 5
2 5 6
2 6 7
2 7 8
2 8 9
2 9 10
2 10 11
2 11 12
2 12 13
2 13 14
2 14 15
2 15 16
2 16 17
2 17 18
2 18 19
2 19 20
2 20 21
2 21 22
2 22 23
2 23 24
2 24 25
2 25 26
2 26 27
2 27 28
2 28 29
2 29 30
2 30 31
2 31 32
2 32 33
2 33 34
2 34 35
2 35 36
2 36 37
2 37 38
2 38 39
2 39 40
2 40 41
2 41 42
2 42 43
2 43 44
2 44 45
2 45 46
2 46 47
2 47 48
2 48 49
2 49 50

CELL_TYPES 50
4
4
4
4
4
4
4
4
4
4
4
4
4
4
4
4
4
4
4
4
4
4
4
4
4
4
4
4
4
4
4
4
4
4
4
4
4
4
4
4
4
4
4
4
4
4
4
4
4
4

POINT_DATA 51

SCALARS zone float
LOOKUP_TABLE default
1.0
1.0
1.0
1.0
1.0
1.0
1.0
1.0
1.0
1.0
1.0
1.0
1.0
1.0
1.0
1.0
1.0
1.0
1.0
1.0
1.0
1.0
1.0
1.0
1.0
1.0
1.0
1.0
1.0
1.0
1.0
1.0
1.0
1.0
1.0
1.0
1.0
1.0
1.0
1.0
1.0
1.0
1.0
1.0
1.0
1.0
1.0
1.0
1.0
1.0
1.0

VECTORS normals float
-0.00011546154564712197 0.0019505362724885342 -0.0006884363247081637
-0.00022074757725931704 0.0038045402616262436 -0.00153101678006351
-0.0002789688587654382 0.003653781022876501 -0.00172307132743299
-0.00040420211735181516 0.0035483336541801687 -0.00179063284303993
-0.00044531151070259506 0.0034805708564817905 -0.0017546573653817177
-0.0003278949297964573 0.0035059528890997176 -0.0014627680648118258
-9.220571519108489e-5 0.0035512417089194055 -0.0011161848669871688
0.00013812060933560133 0.003498214296996594 -0.0010397242149338126
0.0002748481638263911 0.0034301981795579195 -0.0010044437367469072
0.0003148686664644629 0.0033891727216541767 -0.0008950080373324454
0.00028992604347877204 0.0033070105127990246 -0.0008985936874523759
0.00022987906413618475 0.0032148060854524374 -0.0009297707001678646
0.00015821750275790691 0.0031502740457654 -0.0008849181467667221
9.200429485645145e-5 0.003098188666626811 -0.0008058691746555269
4.130187880946323e-5 0.0030339655932039022 -0.0007601677789352834
9.696207598608453e-6 0.0029500091914087534 -0.00076868332689628
-4.217552486807108e-6 0.0028539346531033516 -0.0008104934240691364
-5.062076070316834e-6 0.002760727657005191 -0.0008444245322607457
1.7121039945777738e-6 0.0026812299620360136 -0.0008406897541135548
1.1616368283284828e-5 0.0026153093203902245 -0.0007996527128852903
2.149965257558506e-5 0.0025545936077833176 -0.0007443150389008224
2.9418395570246506e-5 0.0024900210555642843 -0.0006995738949626684
3.442417073529214e-5 0.002417478244751692 -0.0006767308805137873
3.63165709131863e-5 0.0023374799638986588 -0.0006743714911863208
3.5412773286225274e-5 0.0022523824591189623 -0.0006860225112177432
3.2357384043280035e-5 0.0021647021640092134 -0.0007047692197375
2.7964591936324723e-5 0.0020767366513609886 -0.0007242999854497612
2.309120463905856e-5 0.001990472199395299 -0.0007391567341983318
1.854042238846887e-5 0.0019075045129284263 -0.0007449560798704624
1.493051149736857e-5 0.0018287653801962731 -0.0007391374092549086
1.2542826880235225e-5 0.0017541395500302313 -0.0007220174302347004
1.1316546078887768e-5 0.0016825278289616108 -0.0006966161308810115
1.0972400559694506e-5 0.0016123043606057763 -0.0006674008327536285
1.1129222002637107e-5 0.0015417267568409443 -0.0006391585920937359
1.1389166502340231e-5 0.0014692246913909912 -0.0006162037025205791
1.1396474292268977e-5 0.0013935876777395606 -0.000601861800532788
1.0874458894249983e-5 0.0013142172247171402 -0.0005977778346277773
9.644884812587406e-6 0.001231866073794663 -0.0006018829299136996
7.633578206878155e-6 0.0011490340111777186 -0.0006073095719330013
4.865619757765671e-6 0.0010690835770219564 -0.0006048186914995313
1.4529367717841524e-6 0.0009950363310053945 -0.00058610929409042
-2.4232347186625702e-6 0.0009289472945965827 -0.0005455345381051302
-6.532860879815417e-6 0.0008724865620024501 -0.0004785063792951405
-1.0618759006320033e-5 0.000827705196570605 -0.00037938947207294405
-1.4417873899219556e-5 0.0007958463393151759 -0.000244768219999969
-1.7680962628219277e-5 0.000775506894569844 -7.849762914702296e-5
-2.018977284024004e-5 0.0007621632539667189 0.00010699364065658301
-2.1771005776827224e-5 0.0007488482515327632 0.00029256369452923536
-2.2306650862446986e-5 0.0007274345261976123 0.00045588269131258135
-2.1740446754847653e-5 0.0006901011220179498 0.0005754627636633813
-1.058942416420905e-5 0.0003332709602545947 0.0003109053650405258

CELL_DATA 50

VECTORS liftinglineloading               float
0.12223028391599655 0.027390668168663975 0.10222336649894714
0.17281696200370789 0.04417959228157997 0.16488048434257507
-0.07012776285409927 0.014877010136842726 0.05552176013588905
0.1431553214788437 0.019147025421261787 0.07145766913890839
0.12714166939258575 0.033420003950595856 0.1247251480817795
-0.5215680599212646 0.10396091639995575 0.3879874348640442
-1.6254152059555056 0.22466677427291867 0.8384677767753602
-3.192265510559082 0.36851727962493896 1.3753252029418945
-5.046334743499756 0.5141943097114563 1.9189993143081663
-7.119277000427246 0.6645791530609131 2.48024320602417
-9.210805892944336 0.800567626953125 2.9877591133117676
-10.702810287475586 0.8980572819709777 3.351595401763916
-11.865155220031738 0.9562870264053345 3.5689117908477783
-12.788137435913086 0.9960783720016478 3.717415094375611
-13.413856506347654 1.0044859647750854 3.7487924098968506
-13.840506553649902 1.0017751455307007 3.738675832748413
-13.833519935607908 0.9571664333343506 3.5721936225891113
-13.641424179077148 0.9284821748733519 3.4651427268981934
-14.054202079772951 0.9194890260696411 3.431579828262329
-14.26032829284668 0.8954262733459473 3.3417763710021977
-14.198747634887697 0.8729591369628906 3.257927894592285
-14.405539512634277 0.8410367965698242 3.138792037963867
-14.755904197692873 0.8631794452667237 3.2214295864105225
-14.51685619354248 0.8287281394004823 3.092855453491211
-15.3821439743042 0.8376232385635376 3.1260526180267334
-16.671756744384766 0.8197751045227052 3.0594425201416016
-17.143911361694336 0.8063250780105591 3.0092461109161377
-18.79328727722168 0.8614647388458251 3.2150301933288574
-20.542213439941406 0.8710021972656249 3.250624418258667
-21.729433059692383 0.8597877621650697 3.2087717056274414
-22.876211166381836 0.8205527067184447 3.0623443126678467
-23.781612396240234 0.7703313827514648 2.874915838241577
-24.439043045043945 0.7534592151641846 2.81194806098938
-24.844688415527344 0.6913496255874634 2.5801520347595215
-24.929121017456055 0.6594873070716858 2.46124005317688
-24.755001068115234 0.6166112422943115 2.30122447013855
-24.309301376342773 0.5548312664031982 2.0706584453582764
-23.41919708251953 0.5181401371955872 1.9337252378463747
-22.44086265563965 0.49149349331855774 1.8342785835266113
-21.453838348388672 0.45040932297706604 1.6809505224227905
-20.46441650390625 0.42499515414237976 1.5861035585403442
-18.458383560180664 0.4094201624393463 1.5279768705368042
-15.427724838256836 0.4238530397415161 1.5818411111831665
-12.942208290100098 0.4131569862365723 1.5419228076934814
-10.449193000793457 0.4659679830074311 1.7390161752700806
-8.89078140258789 0.480756938457489 1.7942092418670652
-7.034157276153565 0.4733165502548218 1.766441345214844
-5.387204170227051 0.46915483474731445 1.750909686088562
-3.553636074066162 0.45776414871215826 1.7083990573883057
-1.9144407510757444 0.44385042786598206 1.6564723253250124