# vtk DataFile Version 4.0
 
ASCII
DATASET UNSTRUCTURED_GRID
POINTS 51 float
0.0032294827979058027 -0.0038107382133603096 0.0065929433330893525
0.0029985597357153893 -0.007576963864266872 0.008304577320814133
0.0027879877015948296 -0.011123989708721638 0.010306499898433685
0.0024406220763921738 -0.014556366950273516 0.01237450260668993
0.001979583641514182 -0.017881523817777634 0.014492653310298921
0.0015499991131946445 -0.021185163408517838 0.01647716574370861
0.0013237936655059457 -0.02461177110671997 0.01801818422973156
0.00136558769736439 -0.028066055849194523 0.019320063292980194
0.0016000348841771481 -0.03140033781528473 0.020699499174952507
0.0019152839668095112 -0.034725259989500046 0.02191922999918461
0.002229772275313735 -0.03799688071012497 0.023073475807905197
0.002495136111974716 -0.04115747660398483 0.024286027997732162
0.002689530374482274 -0.04423995688557625 0.025486318394541737
0.00281157111749053 -0.04727979749441147 0.026598257943987846
0.0028735389932990074 -0.05027228221297264 0.02763197384774685
0.00289417477324605 -0.0531921349465847 0.02864166349172592
0.0028929314576089382 -0.05601586028933526 0.02967770956456661
0.0028857397846877575 -0.05873700603842735 0.030753955245018005
0.002882807282730937 -0.06136910989880562 0.03184136003255844
0.002889164024963975 -0.06393251568078995 0.03289630636572838
0.002906039822846651 -0.06644044071435928 0.03389045596122742
0.0029321631882339716 -0.06889251619577408 0.034824565052986145
0.002964876824989915 -0.07127958536148071 0.035718321800231934
0.003001011675223708 -0.07359111309051514 0.036594271659851074
0.003037509974092245 -0.07581920176744461 0.03746937960386276
0.0030718371272087097 -0.07795915752649307 0.03835371136665344
0.003102224553003907 -0.08000928163528442 0.03925088793039322
0.0031277663074433804 -0.08197057247161865 0.04015880078077316
0.0031484069768339396 -0.08384623378515244 0.04107053950428963
0.0031648471485823393 -0.08564120531082153 0.04197554290294647
0.0031782679725438356 -0.08736100792884827 0.04286196082830429
0.0031899327877908945 -0.08901028335094452 0.04371984675526619
0.0032009012065827847 -0.09059183299541473 0.044543176889419556
0.003211877541616559 -0.09210628271102905 0.04533061385154724
0.003223159583285451 -0.09355214238166809 0.04608536884188652
0.003234656061977148 -0.0949261412024498 0.046814434230327606
0.0032459525391459465 -0.09622380137443542 0.047527432441711426
0.0032564047724008556 -0.09744037687778473 0.048234522342681885
0.0032652423251420264 -0.098573237657547 0.048941344022750854
0.003271671943366527 -0.09962383657693863 0.04964480921626091
0.0032749734818935394 -0.10059784352779388 0.05033273249864578
0.0032745779026299715 -0.1015041694045067 0.050986014306545265
0.0032701271120458846 -0.10235357284545898 0.05158157646656037
0.0032615121454000473 -0.1031590923666954 0.05209147185087204
0.0032488894648849964 -0.1039365530014038 0.052481748163700104
0.003232676535844803 -0.10470206290483475 0.05271786823868751
0.0032135276123881336 -0.10546798259019852 0.05277332291007042
0.003192296950146556 -0.10623923689126968 0.052637550979852676
0.0031699857208877806 -0.10701097548007965 0.052320957183837884
0.003147683572024107 -0.10776803642511368 0.05185605585575103
0.0031265048310160637 -0.10848623514175415 0.05129470303654671

CELLS 50 150
2 0 1
2 1 2
2 2 3
2 3 4
2 4 5
2 5 6
2 6 7
2 7 8
2 8 9
2 9 10
2 10 11
2 11 12
2 12 13
2 13 14
2 14 15
2 15 16
2 16 17
2 17 18
2 18 19
2 19 20
2 20 21
2 21 22
2 22 23
2 23 24
2 24 25
2 25 26
2 26 27
2 27 28
2 28 29
2 29 30
2 30 31
2 31 32
2 32 33
2 33 34
2 34 35
2 35 36
2 36 37
2 37 38
2 38 39
2 39 40
2 40 41
2 41 42
2 42 43
2 43 44
2 44 45
2 45 46
2 46 47
2 47 48
2 48 49
2 49 50

CELL_TYPES 50
4
4
4
4
4
4
4
4
4
4
4
4
4
4
4
4
4
4
4
4
4
4
4
4
4
4
4
4
4
4
4
4
4
4
4
4
4
4
4
4
4
4
4
4
4
4
4
4
4
4

POINT_DATA 51

SCALARS zone float
LOOKUP_TABLE default
1.0
1.0
1.0
1.0
1.0
1.0
1.0
1.0
1.0
1.0
1.0
1.0
1.0
1.0
1.0
1.0
1.0
1.0
1.0
1.0
1.0
1.0
1.0
1.0
1.0
1.0
1.0
1.0
1.0
1.0
1.0
1.0
1.0
1.0
1.0
1.0
1.0
1.0
1.0
1.0
1.0
1.0
1.0
1.0
1.0
1.0
1.0
1.0
1.0
1.0
1.0

VECTORS normals float
-0.00011546154564712197 -0.0018831127090379598 0.0008558170520700514
-0.00022074757725931704 -0.003656625747680664 0.0018567783990874884
-0.0002789688587654382 -0.0034897017758339643 0.002034962410107255
-0.00040420211735181516 -0.0033787672873586416 0.0020930764731019735
-0.00044531151070259506 -0.0033143977634608746 0.0020513320341706276
-0.0003278949297964573 -0.0033651229459792376 0.0017627656925469637
-9.220571519108489e-5 -0.0034404462203383446 0.00142144865822047
0.00013812060933560133 -0.003394284518435597 0.00134065723977983
0.0002748481638263911 -0.003329602302983403 0.0012995830038562417
0.0003148686664644629 -0.0032982707489281897 0.0011869880836457014
0.00028992604347877204 -0.0032161087729036804 0.0011833992321044207
0.00022987906413618475 -0.0031215378548949957 0.0012064215261489153
0.00015821750275790691 -0.0030611606780439615 0.0011561152059584856
9.200429485645145e-5 -0.00301616289652884 0.0010728274937719107
4.130187880946323e-5 -0.0029561673291027546 0.0010217026574537158
9.696207598608453e-6 -0.002871788339689374 0.0010228684404864907
-4.217552486807108e-6 -0.002772435313090682 0.0010561459930613637
-5.062076070316834e-6 -0.0026766257360577583 0.0010818245355039835
1.7121039945777738e-6 -0.0025977562181651592 0.001071175211109221
1.1616368283284828e-5 -0.002535663079470396 0.0010245490120723844
2.149965257558506e-5 -0.0024800014216452837 0.0009641302167437972
2.9418395570246506e-5 -0.0024195739533752203 0.0009139314061030746
3.442417073529214e-5 -0.002349297981709242 0.0008848528377711774
3.63165709131863e-5 -0.0022698098327964544 0.0008755301241762935
3.5412773286225274e-5 -0.0021840205881744623 0.0008797200862318277
3.2357384043280035e-5 -0.0020950401667505503 0.0008907535811886191
2.7964591936324723e-5 -0.0020057072397321463 0.0009025433100759983
2.309120463905856e-5 -0.0019184761913493276 0.0009098250884562732
1.854042238846887e-5 -0.001835318631492555 0.0009083712357096374
1.493051149736857e-5 -0.0017573862569406629 0.0008957121754065156
1.2542826880235225e-5 -0.0016845365753397348 0.0008721532649360597
1.1316546078887768e-5 -0.0016154112527146935 0.0008406072738580405
1.0972400559694506e-5 -0.0015480013098567724 0.0008053827914409338
1.1129222002637107e-5 -0.001480153645388782 0.0007710967329330742
1.1389166502340231e-5 -0.0014099280815571547 0.0007419102475978434
1.1396474292268977e-5 -0.0013358290307223797 0.0007210306939668953
1.0874458894249983e-5 -0.0012571164406836033 0.0007100446964614093
9.644884812587406e-6 -0.00117472093552351 0.0007069567800499499
7.633578206878155e-6 -0.0010917310137301683 0.0007051434949971735
4.865619757765671e-6 -0.001012302003800869 0.0006956939469091594
1.4529367717841524e-6 -0.000940167054068297 0.0006706020794808865
-2.4232347186625702e-6 -0.0008778659394010903 0.0006244216929189861
-6.532860879815417e-6 -0.0008274618885479867 0.0005527277244254947
-1.0618759006320033e-5 -0.0007914895541034639 0.00045008503366261715
-1.4417873899219556e-5 -0.0007714849780313671 0.00031319938716478646
-1.7680962628219277e-5 -0.0007657143869437277 0.00014578881382476538
-2.018977284024004e-5 -0.0007685880991630256 -4.015959348180331e-5
-2.1771005776827224e-5 -0.0007714972598478198 -0.00022618398361373693
-2.2306650862446986e-5 -0.0007643991848453879 -0.0003907478239852935
-2.1740446754847653e-5 -0.0007376299472525716 -0.0005131266661919653
-1.058942416420905e-5 -0.00035909994039684534 -0.00028067579842172563

CELL_DATA 50

VECTORS liftinglineloading               float
0.1254831999540329 -0.03678996115922928 -0.10107958316802979
0.18281319737434387 -0.060937833040952676 -0.16742531955242157
-0.06986749172210693 -0.018512675538659096 -0.05086315795779228
0.13553060591220856 -0.02478162944316864 -0.06808696687221527
0.1507175862789154 -0.04070623591542244 -0.11183946579694748
-0.47386249899864197 -0.13083375990390778 -0.35946279764175415
-1.5577374696731567 -0.28915688395500183 -0.7944520711898804
-3.102555990219116 -0.4796569943428039 -1.3178467750549316
-4.939988136291504 -0.6724891662597656 -1.8476487398147583
-6.979543209075928 -0.8701844215393065 -2.3908121585845947
-9.042964935302734 -1.049136996269226 -2.8824801445007324
-10.829566955566406 -1.1928764581680298 -3.277401208877563
-11.79816722869873 -1.2615467309951782 -3.4660713672637944
-12.76752758026123 -1.3161559104919434 -3.6161086559295654
-13.411022186279295 -1.3279513120651245 -3.6485161781311035
-13.879942893981934 -1.326244592666626 -3.643826961517334
-13.944396972656248 -1.2709778547286987 -3.491982936859131
-13.862195014953613 -1.2379074096679688 -3.4011228084564205
-14.458253860473631 -1.233559012413025 -3.389175653457642
-14.186261177062988 -1.1807568073272705 -3.2441024780273438
-14.228163719177246 -1.1554876565933228 -3.1746764183044434
-14.355822563171387 -1.1101628541946411 -3.050147294998169
-14.717248916625977 -1.1399319171905518 -3.131937265396118
-14.491597175598145 -1.0948243141174316 -3.008004903793335
-15.376657485961914 -1.1071749925613403 -3.041938066482544
-16.69512939453125 -1.084244966506958 -2.978938579559326
-17.210554122924805 -1.067387342453003 -2.9326226711273193
-18.91431999206543 -1.140860676765442 -3.134488821029663
-20.375417709350586 -1.1498539447784424 -3.1591975688934326
-21.558124542236328 -1.1357145309448242 -3.1203501224517822
-22.762248992919922 -1.0840482711791992 -2.978398323059082
-23.678783416748047 -1.0183162689208984 -2.7978010177612305
-24.34687042236328 -0.9959334135055542 -2.736304521560669
-24.762399673461914 -0.9146508574485778 -2.5129826068878174
-24.85382843017578 -0.8725778460502625 -2.397387981414795
-24.686954498291016 -0.8158601522445678 -2.2415573596954346
-24.267066955566406 -0.7337921857833862 -2.0160775184631348
-23.400243759155273 -0.6851803064346313 -1.8825173377990723
-22.408605575561523 -0.6500218510627747 -1.7859202623367307
-21.412595748901367 -0.5959001779556274 -1.6372222900390623
-20.415918350219727 -0.5622515678405762 -1.5447734594345093
-18.40793228149414 -0.5415318012237549 -1.4878463745117188
-15.377331733703613 -0.5601862072944641 -1.5390989780426025
-12.89493179321289 -0.5458611845970154 -1.4997413158416748
-10.406429290771484 -0.6150538921356201 -1.6898466348648071
-8.800921440124512 -0.633538544178009 -1.7406327724456785
-6.970980167388916 -0.6238166093826294 -1.7139220237731934
-5.343022346496582 -0.6186069846153259 -1.6996086835861206
-3.526516914367676 -0.6037086844444275 -1.658676028251648
-1.9001418352127075 -0.5854259729385376 -1.6084446907043457