# vtk DataFile Version 4.0
 
ASCII
DATASET UNSTRUCTURED_GRID
POINTS 51 float
0.0032294827979058027 0.0073565137572586545 -0.0019673160277307034
0.0029985597357153893 0.011229945346713066 -0.0005145004251971841
0.0027879877015948296 0.015153644606471062 0.0005780527135357261
0.0024406220763921738 0.019043000414967537 0.0015428115148097277
0.001979583641514182 0.022892000153660774 0.0023962941486388445
0.0015499991131946445 0.02663128823041916 0.0033290560822933912
0.0013237936655059457 0.030143929645419117 0.004662369377911091
0.00136558769736439 0.03350704535841942 0.0061843497678637505
0.0016000348841771481 0.03684014827013016 0.007566636893898249
0.0019152839668095112 0.040053702890872955 0.009055230766534805
0.002229772275313735 0.04318326339125633 0.010552441701292992
0.002495136111974716 0.046275544911623 0.011929916217923164
0.002689530374482274 0.049303922802209854 0.013260825537145136
0.00281157111749053 0.05223967507481576 0.014624057337641716
0.0028735389932990074 0.055086627602577216 0.016009116545319557
0.00289417477324605 0.057865232229232795 0.01735980436205864
0.0028929314576089382 0.06059450283646583 0.01862388476729393
0.0028857397846877575 0.0632796660065651 0.019787002354860306
0.002882807282730937 0.06590975821018219 0.020879274234175682
0.002889164024963975 0.06846831738948822 0.02194591425359249
0.002906039822846651 0.0709446519613266 0.0230163112282753
0.0029321631882339716 0.0733390524983406 0.02408968098461628
0.002964876824989915 0.07565894722938538 0.02514561079442501
0.003001011675223708 0.077912837266922 0.026160718873143196
0.003037509974092245 0.08010713011026382 0.027117419987916946
0.0030718371272087097 0.08224561810493469 0.028005277737975117
0.003102224553003907 0.08432967960834503 0.028820538893342018
0.0031277663074433804 0.08635850250720978 0.029565386474132538
0.0031484069768339396 0.0883295014500618 0.03024698793888092
0.0031648471485823393 0.09023866802453995 0.030876288190484043
0.0031782679725438356 0.09208154678344727 0.03146557882428169
0.0031899327877908945 0.0938543751835823 0.03202517330646515
0.0032009012065827847 0.095554880797863 0.03256131708621979
0.003211877541616559 0.09718256443738937 0.03307539224624634
0.003223159583285451 0.09873863309621811 0.03356407582759857
0.003234656061977148 0.10022572427988052 0.034020114690065384
0.0032459525391459465 0.10164746642112733 0.03443353250622749
0.0032564047724008556 0.10300770401954651 0.03479379042983055
0.0032652423251420264 0.1043085604906082 0.03509505093097687
0.003271671943366527 0.10554887354373933 0.035340506583452225
0.0032749734818935394 0.10672403126955032 0.0355428010225296
0.0032745779026299715 0.10782684385776521 0.035721730440855026
0.0032701271120458846 0.10884858667850493 0.03590122610330582
0.0032615121454000473 0.1097787246108055 0.03611026331782341
0.0032488894648849964 0.11060444265604019 0.03638404235243797
0.003232676535844803 0.11131270229816438 0.03675837442278862
0.0032135276123881336 0.11189350485801697 0.037260752171278
0.003192296950146556 0.11234285682439803 0.037902116775512695
0.0031699857208877806 0.11266469210386278 0.03867168352007866
0.003147683572024107 0.11287127435207368 0.03953574225306511
0.0031265048310160637 0.11298218369483946 0.04044052213430405

CELLS 50 150
2 0 1
2 1 2
2 2 3
2 3 4
2 4 5
2 5 6
2 6 7
2 7 8
2 8 9
2 9 10
2 10 11
2 11 12
2 12 13
2 13 14
2 14 15
2 15 16
2 16 17
2 17 18
2 18 19
2 19 20
2 20 21
2 21 22
2 22 23
2 23 24
2 24 25
2 25 26
2 26 27
2 27 28
2 28 29
2 29 30
2 30 31
2 31 32
2 32 33
2 33 34
2 34 35
2 35 36
2 36 37
2 37 38
2 38 39
2 39 40
2 40 41
2 41 42
2 42 43
2 43 44
2 44 45
2 45 46
2 46 47
2 47 48
2 48 49
2 49 50

CELL_TYPES 50
4
4
4
4
4
4
4
4
4
4
4
4
4
4
4
4
4
4
4
4
4
4
4
4
4
4
4
4
4
4
4
4
4
4
4
4
4
4
4
4
4
4
4
4
4
4
4
4
4
4

POINT_DATA 51

SCALARS zone float
LOOKUP_TABLE default
1.0
1.0
1.0
1.0
1.0
1.0
1.0
1.0
1.0
1.0
1.0
1.0
1.0
1.0
1.0
1.0
1.0
1.0
1.0
1.0
1.0
1.0
1.0
1.0
1.0
1.0
1.0
1.0
1.0
1.0
1.0
1.0
1.0
1.0
1.0
1.0
1.0
1.0
1.0
1.0
1.0
1.0
1.0
1.0
1.0
1.0
1.0
1.0
1.0
1.0
1.0

VECTORS normals float
-0.00011546154564712197 0.0019367157947272062 0.0007264077430590987
-0.00022074757725931704 0.003898565424606204 0.0012726843124255538
-0.0002789688587654382 0.003906527534127235 0.0010286560282111168
-0.00040420211735181516 0.0038691780064255 0.0009091206593438983
-0.00044531151070259506 0.003794143907725811 0.0008931222837418318
-0.0003278949297964573 0.0036259647458791733 0.001133037731051445
-9.220571519108489e-5 0.0034378787968307734 0.0014276469592005014
0.00013812060933560133 0.0033481093123555183 0.001452133757993579
0.0002748481638263911 0.003273328300565481 0.0014354404993355274
0.0003148686664644629 0.0031715568620711565 0.0014929022872820497
0.00028992604347877204 0.0031109219416975975 0.0014373427256941795
0.00022987906413618475 0.003060329472646117 0.0013541918015107512
0.00015821750275790691 0.0029820643831044436 0.0013470705598592758
9.200429485645145e-5 0.002891352865844965 0.0013741456205025315
4.130187880946323e-5 0.0028127788100391626 0.0013678731629624963
9.696207598608453e-6 0.002753938315436244 0.001307383761741221
-4.217552486807108e-6 0.0027072159573435783 0.001213599811308086
-5.062076070316834e-6 0.002657625824213028 0.0011276948498561978
1.7121039945777738e-6 0.002594326389953494 0.001079455716535449
1.1616368283284828e-5 0.0025174501352012157 0.0010685189627110958
2.149965257558506e-5 0.0024353687185794115 0.001071882783435285
2.9418395570246506e-5 0.0023571441415697336 0.0010646500159054995
3.442417073529214e-5 0.0022868900559842587 0.001035519177094102
3.63165709131863e-5 0.0022240912076085806 0.0009859047131612897
3.5412773286225274e-5 0.0021663918159902096 0.0009222797816619277
3.2357384043280035e-5 0.0021112749818712473 0.0008515592198818921
2.7964591936324723e-5 0.0020564435981214046 0.0007800546009093523
2.309120463905856e-5 0.001999910920858383 0.0007132239989005029
1.854042238846887e-5 0.0019400817109271882 0.0006554507999680936
1.493051149736857e-5 0.0018760239472612739 0.0006092955591157079
1.2542826880235225e-5 0.0018078526481986046 0.0005744417430832982
1.1316546078887768e-5 0.001736667356453836 0.0005478691309690475
1.0972400559694506e-5 0.0016640938119962811 0.0005251105758361518
1.1129222002637107e-5 0.0015918744029477236 0.0005013789632357657
1.1389166502340231e-5 0.0015215794555842876 0.0004723599995486438
1.1396474292268977e-5 0.001454419456422329 0.0004347280482761562
1.0874458894249983e-5 0.00139099289663136 0.00038683813181705773
9.644884812587406e-6 0.001330547034740448 0.00033075918327085674
7.633578206878155e-6 0.001270582084544003 0.0002733586588874459
4.865619757765671e-6 0.001207735505886376 0.0002238757006125525
1.4529367717841524e-6 0.0011389857390895486 0.0001906112302094698
-2.4232347186625702e-6 0.0010622777044773102 0.0001792121329344809
-6.532860879815417e-6 0.0009759414824657142 0.0001942663948284462
-1.0618759006320033e-5 0.00087792583508417 0.00024140944879036397
-1.4417873899219556e-5 0.0007669876795262098 0.0003240568330511451
-1.7680962628219277e-5 0.0006445300532504916 0.00043835357064381236
-2.018977284024004e-5 0.0005150767392478883 0.000571870943531394
-2.1771005776827224e-5 0.00038559469976462424 0.0007054671877995133
-2.2306650862446986e-5 0.0002642114122863859 0.0008168123313225805
-2.1740446754847653e-5 0.00015874780365265906 0.0008844184922054409
-1.058942416420905e-5 5.545424937736243e-5 0.00045238976599648595

CELL_DATA 50

VECTORS liftinglineloading               float
0.12103366106748581 -0.044230036437511444 0.09485162049531937
0.18294470012187958 -0.07516027241945267 0.1611817181110382
-0.06905224919319153 -0.022473573684692383 0.04819473624229431
0.13357536494731903 -0.03023352287709713 0.06483599543571472
0.149034321308136 -0.04969709366559982 0.10657575726509094
-0.4704548716545105 -0.1601632684469223 0.3434712290763855
-1.5459235906600952 -0.3541279137134552 0.7594297528266907
-3.0774431228637695 -0.5871951580047607 1.2592440843582153
-4.896275520324707 -0.82299542427063 1.764919400215149
-6.913305282592773 -1.06477952003479 2.2834270000457764
-8.951329231262207 -1.283622145652771 2.7527365684509277
-10.534152030944824 -1.4493211507797241 3.108079433441162
-11.810613632202148 -1.551162838935852 3.326479434967041
-12.840752601623535 -1.6220732927322388 3.478547334671021
-13.5771484375 -1.6430646181106567 3.5235636234283443
-14.112883567810059 -1.644640803337097 3.5269436836242676
-14.219079971313477 -1.582105278968811 3.392835855484009
-14.154148101806642 -1.5410476922988892 3.3047873973846436
-14.7599573135376 -1.535292148590088 3.2924447059631348
-14.62744998931885 -1.4764646291732788 3.1662886142730713
-14.54404926300049 -1.4379820823669434 3.0837624073028564
-14.542650222778319 -1.375106692314148 2.9489259719848633
-14.82954406738281 -1.4076076745986938 3.0186243057250977
-14.544219970703123 -1.349542498588562 2.8941032886505127
-15.369863510131836 -1.362484335899353 2.9218571186065674
-16.62925910949707 -1.332755208015442 2.858102798461914
-17.09264373779297 -1.3109217882156372 2.8112809658050537
-18.73975372314453 -1.4006776809692383 3.00376296043396
-20.14310646057129 -1.4116395711898804 3.027270793914795
-21.271472930908203 -1.3947536945343018 2.9910590648651123
-22.40980339050293 -1.3322248458862305 2.8569655418395996
-24.490386962890625 -1.2570850849151611 2.6958277225494385
-24.976675033569336 -1.2301993370056152 2.6381709575653076
-25.23590850830078 -1.1243523359298706 2.4111814498901367
-25.20361328125 -1.07315194606781 2.3013815879821777
-24.925994873046875 -1.0040756464004517 2.153247117996216
-24.41573143005371 -0.9044497013092041 1.9395986795425415
-23.46477508544922 -0.8451440930366517 1.8124173879623413
-22.440034866333008 -0.8021516799926758 1.7202198505401611
-21.413843154907227 -0.7355608344078064 1.5774153470993042
-20.39099884033203 -0.6943280696868896 1.488991379737854
-18.361967086791992 -0.6688748002052307 1.4344066381454468
-15.426749229431152 -0.6915025115013123 1.4829318523406982
-12.921072959899902 -0.6740071773529053 1.4454131126403809
-10.416418075561523 -0.7597042918205261 1.6291910409927366
-8.800905227661133 -0.7823247313499451 1.6777008771896362
-6.963500499725343 -0.770101010799408 1.6514869928359988
-5.330999374389648 -0.7634384036064148 1.6371989250183105
-3.513880491256714 -0.7448093891143799 1.597248911857605
-1.890382528305054 -0.7220067977905273 1.5483485460281372