# vtk DataFile Version 4.0
 
ASCII
DATASET UNSTRUCTURED_GRID
POINTS 51 float
0.0032294827979058027 0.006596667692065239 -0.003804287174716592
0.0029985597357153893 0.010714131407439709 -0.0034034929703921075
0.0027879877015948296 0.014786907471716404 -0.0033636956941336393
0.0024406220763921738 0.018793435767292976 -0.0034384496975690126
0.001979583641514182 0.02273218147456646 -0.0036102433223277335
0.0015499991131946445 0.026585472747683525 -0.003677063388749957
0.0013237936655059457 0.030323510989546772 -0.003298320109024644
0.00136558769736439 0.03396594896912575 -0.002698638243600726
0.0016000348841771481 0.03754324093461037 -0.0022261221893131733
0.0019152839668095112 0.0410325713455677 -0.0016199796227738261
0.002229772275313735 0.044443000108003616 -0.0009837751276791096
0.002495136111974716 0.04778643324971199 -0.0004535784828476607
0.002689530374482274 0.05105608701705933 4.817952503799461e-5
0.00281157111749053 0.054244637489318855 0.0006051317905075848
0.0028735389932990074 0.057353060692548745 0.001206150627695024
0.00289417477324605 0.06038657203316689 0.0017916583456099031
0.0028929314576089382 0.06335001438856125 0.002306278795003891
0.0028857397846877575 0.0662447139620781 0.002734794979915023
0.002882807282730937 0.06906788796186447 0.00310912961140275
0.002889164024963975 0.07181533426046371 0.003477221354842186
0.002906039822846651 0.07448433339595795 0.003870221786201
0.0029321631882339716 0.07707495242357254 0.004287300165742636
0.002964876824989915 0.07958909124135971 0.004706820007413626
0.003001011675223708 0.08202891051769257 0.005103988107293844
0.003037509974092245 0.08439604938030243 0.005460167303681374
0.0030718371272087097 0.0866914689540863 0.005764288827776909
0.003102224553003907 0.08891551941633224 0.006012376863509417
0.0031277663074433804 0.09106799960136414 0.006206745281815529
0.0031484069768339396 0.09314823895692825 0.00635498994961381
0.0031648471485823393 0.09515523165464401 0.006468718871474266
0.0031782679725438356 0.09708783775568008 0.006560957059264184
0.0031899327877908945 0.09894508868455887 0.006642641499638557
0.0032009012065827847 0.100726418197155 0.006720393896102905
0.003211877541616559 0.10243169218301773 0.0067956787534058085
0.003223159583285451 0.10406121611595154 0.0068649686872959146
0.003234656061977148 0.10561566799879075 0.006920580752193929
0.0032459525391459465 0.10709597170352936 0.006951936054974794
0.0032564047724008556 0.10850310325622559 0.006947863847017287
0.0032652423251420264 0.1098375990986824 0.006902171764522791
0.003271671943366527 0.11109917610883714 0.006818250287324189
0.0032749734818935394 0.11228665709495543 0.00670949649065733
0.0032745779026299715 0.11339819431304932 0.006596900522708893
0.0032701271120458846 0.11443158239126205 0.006505832076072694
0.0032615121454000473 0.11538413166999818 0.006467009894549847
0.0032488894648849964 0.11625257134437561 0.00651775160804391
0.003232676535844803 0.11703357845544814 0.006696017924696207
0.0032135276123881336 0.11772461235523225 0.007030952256172895
0.003192296950146556 0.1183246523141861 0.007534164469689132
0.0031699857208877806 0.11883470416069031 0.0081942118704319
0.003147683572024107 0.11925788223743439 0.008975358679890633
0.0031265048310160637 0.11959918588399886 0.009820602834224701

CELLS 50 150
2 0 1
2 1 2
2 2 3
2 3 4
2 4 5
2 5 6
2 6 7
2 7 8
2 8 9
2 9 10
2 10 11
2 11 12
2 12 13
2 13 14
2 14 15
2 15 16
2 16 17
2 17 18
2 18 19
2 19 20
2 20 21
2 21 22
2 22 23
2 23 24
2 24 25
2 25 26
2 26 27
2 27 28
2 28 29
2 29 30
2 30 31
2 31 32
2 32 33
2 33 34
2 34 35
2 35 36
2 36 37
2 37 38
2 38 39
2 39 40
2 40 41
2 41 42
2 42 43
2 43 44
2 44 45
2 45 46
2 46 47
2 47 48
2 48 49
2 49 50

CELL_TYPES 50
4
4
4
4
4
4
4
4
4
4
4
4
4
4
4
4
4
4
4
4
4
4
4
4
4
4
4
4
4
4
4
4
4
4
4
4
4
4
4
4
4
4
4
4
4
4
4
4
4
4

POINT_DATA 51

SCALARS zone float
LOOKUP_TABLE default
1.0
1.0
1.0
1.0
1.0
1.0
1.0
1.0
1.0
1.0
1.0
1.0
1.0
1.0
1.0
1.0
1.0
1.0
1.0
1.0
1.0
1.0
1.0
1.0
1.0
1.0
1.0
1.0
1.0
1.0
1.0
1.0
1.0
1.0
1.0
1.0
1.0
1.0
1.0
1.0
1.0
1.0
1.0
1.0
1.0
1.0
1.0
1.0
1.0
1.0
1.0

VECTORS normals float
-0.00011546154564712197 0.0020587320905178785 0.00020039707305841148
-0.00022074757725931704 0.0040951198898255825 0.0002202956675319001
-0.0002789688587654382 0.0040396517142653465 -1.7478336303611286e-5
-0.00040420211735181516 0.0039726365357637405 -0.00012327381409704685
-0.00044531151070259506 0.0038960184901952744 -0.00011930681648664176
-0.0003278949297964573 0.0037956647574901585 0.0001559616212034598
-9.220571519108489e-5 0.0036902381107211113 0.0004892125143669546
0.00013812060933560133 0.003609865205362439 0.0005360990180633962
0.0002748481638263911 0.003533311653882265 0.00053932931041345
0.0003148686664644629 0.0034498802851885557 0.0006211735308170319
0.00028992604347877204 0.003376931650564075 0.0005832005990669131
0.00022987906413618475 0.0033065418247133493 0.0005159773281775415
0.00015821750275790691 0.003229100489988923 0.0005293551366776228
9.200429485645145e-5 0.003148487536236644 0.0005789855495095253
4.130187880946323e-5 0.0030709675047546625 0.0005932632484473288
9.696207598608453e-6 0.002998475916683674 0.0005500640836544335
-4.217552486807108e-6 0.0029290723614394665 0.0004715683753602207
-5.062076070316834e-6 0.0028589381836354733 0.0004014254081994295
1.7121039945777738e-6 0.0027853106148540974 0.00037121312925592065
1.1616368283284828e-5 0.002708223182708025 0.00038054600008763373
2.149965257558506e-5 0.0026298093143850565 0.0004050394054502249
2.9418395570246506e-5 0.002552378224208951 0.00041829913971014326
3.442417073529214e-5 0.002476978348568082 0.0004083439998794347
3.63165709131863e-5 0.0024034781381487846 0.000376673589926213
3.5412773286225274e-5 0.0023312773555517197 0.00033015041844919324
3.2357384043280035e-5 0.002259734785184264 0.00027610486722551286
2.7964591936324723e-5 0.0021882650908082724 0.00022122812515590337
2.309120463905856e-5 0.0021163616329431534 0.00017130641208495945
1.854042238846887e-5 0.0020436181221157312 0.00013098676572553813
1.493051149736857e-5 0.0019697973039001226 0.00010298362030880526
1.2542826880235225e-5 0.0018949280492961405 8.696140139363706e-5
1.1316546078887768e-5 0.0018192908028140664 7.971836748765782e-5
1.0972400559694506e-5 0.0017432997701689599 7.651867781532928e-5
1.1129222002637107e-5 0.0016673990758135915 7.228748290799558e-5
1.1389166502340231e-5 0.001591988722793758 6.24509557383135e-5
1.1396474292268977e-5 0.0015173772117123008 4.348359288997017e-5
1.0874458894249983e-5 0.0014437170466408134 1.3641487385029906e-5
9.644884812587406e-6 0.0013708164915442467 -2.488206882844679e-5
7.633578206878155e-6 0.0012980385217815638 -6.480665615526959e-5
4.865619757765671e-6 0.0012245262041687965 -9.633762238081545e-5
1.4529367717841524e-6 0.0011495095677673817 -0.00011067489685956389
-2.4232347186625702e-6 0.0010724649764597416 -0.0001018320836010389
-6.532860879815417e-6 0.0009929669322445989 -6.494531407952309e-5
-1.0618759006320033e-5 0.0009104926139116287 5.959695045021363e-6
-1.4417873899219556e-5 0.0008247252553701401 0.00011450384772615507
-1.7680962628219277e-5 0.0007360224844887853 0.0002566003822721541
-2.018977284024004e-5 0.0006455369875766337 0.00041907327249646187
-2.1771005776827224e-5 0.0005550442147068679 0.0005816296907141805
-2.2306650862446986e-5 0.00046661522355861967 0.0007205971633084118
-2.1740446754847653e-5 0.0003822429571300745 0.0008131957147270442
-1.058942416420905e-5 0.00017065177962649614 0.00042262233910150826

CELL_DATA 50

VECTORS liftinglineloading               float
0.14477764070034027 -0.02063930407166481 0.11705130338668823
0.21855612099170685 -0.03555773198604584 0.20165792107582092
-0.07289902865886688 -0.008528707548975945 0.048368703573942184
0.12700840830802917 -0.012392889708280563 0.07028356939554214
0.14808696508407593 -0.021169833838939667 0.12006009370088579
-0.5489019751548767 -0.07188655436038971 0.4076889157295227
-1.737842082977295 -0.15727829933166504 0.8919695615768433
-3.4095921516418457 -0.2559455633163452 1.451539397239685
-5.355893611907959 -0.35474342107772827 2.011849880218506
-7.468878746032715 -0.45497784018516546 2.5803074836730957
-9.865187644958496 -0.5520672798156738 3.1309289932250977
-11.74023151397705 -0.6233680844306946 3.5352959632873535
-12.972444534301758 -0.6604813933372498 3.7457761764526367
-13.930721282958984 -0.6882579326629639 3.903304576873779
-14.663314819335938 -0.6988053917884827 3.9631223678588867
-15.196142196655273 -0.698702871799469 3.9625408649444576
-15.305821418762205 -0.6766781806945801 3.837632656097412
-15.244936943054197 -0.6579455137252808 3.731394529342651
-15.999327659606934 -0.6574986577033997 3.7288601398468018
-15.900535583496094 -0.6322774887084961 3.585824012756348
-15.865396499633789 -0.6161335110664368 3.4942667484283447
-15.78416347503662 -0.5871497392654419 3.329891681671142
-16.10451889038086 -0.5984727740287781 3.394107818603515
-15.847857475280762 -0.573773205280304 3.2540295124053955
-16.692424774169922 -0.5769079327583313 3.2718074321746826
-17.936506271362305 -0.5627243518829346 3.191368579864502
-18.477867126464844 -0.5539681315422058 3.141709327697754
-20.05270767211914 -0.5861662030220032 3.3243136405944824
-21.50042724609375 -0.588549792766571 3.337831735610962
-22.633956909179688 -0.5789148807525635 3.2831895351409908
-23.64665985107422 -0.551487386226654 3.12764048576355
-24.452579498291016 -0.5157522559165955 2.924976348876953
-25.025711059570312 -0.504789412021637 2.8628029823303223
-25.357973098754883 -0.46069803833961487 2.612748384475708
-25.39830780029297 -0.43928828835487366 2.4913277626037598
-25.1782283782959 -0.4105396568775177 2.3282861709594727
-24.716501235961914 -0.3698441684246063 2.0974905490875244
-23.78234100341797 -0.345390647649765 1.958807706832886
-22.788183212280273 -0.32780933380126953 1.85909903049469
-21.778989791870117 -0.29992377758026123 1.7009522914886475
-20.777362823486328 -0.2833493649959564 1.6069542169570923
-18.825498580932617 -0.2732197940349579 1.549506425857544
-15.737543106079103 -0.2843102514743805 1.6124035120010376
-13.195144653320312 -0.27758631110191345 1.574270248413086
-10.652172088623047 -0.3142728805541992 1.7823301553726199
-9.028021812438965 -0.3238000273704529 1.8363611698150633
-7.163880348205566 -0.3191535472869873 1.8100097179412842
-5.505361557006836 -0.3164740800857544 1.7948137521743774
-3.6456291675567627 -0.30901291966438293 1.7524994611740112
-1.9738359451293948 -0.2998482882976532 1.700524091720581