# vtk DataFile Version 4.0
 
ASCII
DATASET UNSTRUCTURED_GRID
POINTS 51 float
0.0032294827979058027 -0.006235727109014988 -0.004370850045233965
0.0029985597357153893 -0.007612599991261958 -0.00827192235738039
0.0027879877015948296 -0.009297761134803295 -0.011979930102825165
0.0024406220763921738 -0.011058742180466652 -0.015579485334455965
0.001979583641514182 -0.012879027053713799 -0.019076598808169365
0.0015499991131946445 -0.014568056911230087 -0.022540627047419548
0.0013237936655059457 -0.015804562717676163 -0.026088504120707512
0.00136558769736439 -0.016800427809357643 -0.029643109068274495
0.0016000348841771481 -0.017884010449051857 -0.0330849327147007
0.0019152839668095112 -0.01880931481719017 -0.03650350496172905
0.002229772275313735 -0.019674027338624 -0.03986327722668648
0.002495136111974716 -0.020606501027941704 -0.04311752691864967
0.002689530374482274 -0.02153356932103634 -0.04629288986325264
0.00281157111749053 -0.02237633801996708 -0.04941807687282562
0.0028735389932990074 -0.02314530685544014 -0.0524892657995224
0.00289417477324605 -0.023896673694252968 -0.05548600852489472
0.0028929314576089382 -0.024682672694325447 -0.05838928371667861
0.0028857397846877575 -0.025517661124467846 -0.06119387596845627
0.002882807282730937 -0.02637152187526226 -0.06391073763370514
0.002889164024963975 -0.027199039235711098 -0.06655633449554443
0.002906039822846651 -0.027970828115940094 -0.06914135813713074
0.0029321631882339716 -0.028687670826911926 -0.07166552543640137
0.002964876824989915 -0.029369976371526718 -0.0741214007139206
0.003001011675223708 -0.030041132122278214 -0.07650048285722733
0.003037509974092245 -0.030718719586730003 -0.07879636436700821
0.0030718371272087097 -0.03141317516565323 -0.08100524544715881
0.003102224553003907 -0.03212825581431389 -0.0831257626414299
0.0031277663074433804 -0.032861776649951935 -0.08515872061252594
0.0031484069768339396 -0.03360657021403313 -0.08710671216249466
0.0031648471485823393 -0.034351687878370285 -0.08897373080253601
0.0031782679725438356 -0.03508484736084938 -0.09076423943042755
0.0031899327877908945 -0.03579572215676308 -0.09248200803995132
0.0032009012065827847 -0.03647807613015175 -0.0941292941570282
0.003211877541616559 -0.03713052719831467 -0.09570661187171936
0.003223159583285451 -0.03775639459490776 -0.09721274673938751
0.003234656061977148 -0.038362931460142136 -0.09864506125450134
0.0032459525391459465 -0.03896011784672737 -0.09999992698431015
0.0032564047724008556 -0.03955848887562752 -0.10127349942922592
0.0032652423251420264 -0.04016388580203056 -0.10246365517377853
0.003271671943366527 -0.04077310860157013 -0.1035715639591217
0.0032749734818935394 -0.04137352108955383 -0.10460182279348372
0.0032745779026299715 -0.04194532707333565 -0.10556163638830185
0.0032701271120458846 -0.042464591562747955 -0.10645972192287446
0.0032615121454000473 -0.04290233924984932 -0.1073066145181656
0.0032488894648849964 -0.04322336986660957 -0.10811512917280196
0.003232676535844803 -0.0433918759226799 -0.10889830440282822
0.0032135276123881336 -0.043380364775657654 -0.10966614633798599
0.003192296950146556 -0.04317788779735565 -0.11042263358831407
0.0031699857208877806 -0.04279523715376854 -0.11116383969783783
0.003147683572024107 -0.0422661229968071 -0.11187750101089479
0.0031265048310160637 -0.04164431244134903 -0.11254404485225677

CELLS 50 150
2 0 1
2 1 2
2 2 3
2 3 4
2 4 5
2 5 6
2 6 7
2 7 8
2 8 9
2 9 10
2 10 11
2 11 12
2 12 13
2 13 14
2 14 15
2 15 16
2 16 17
2 17 18
2 18 19
2 19 20
2 20 21
2 21 22
2 22 23
2 23 24
2 24 25
2 25 26
2 26 27
2 27 28
2 28 29
2 29 30
2 30 31
2 31 32
2 32 33
2 33 34
2 34 35
2 35 36
2 36 37
2 37 38
2 38 39
2 39 40
2 40 41
2 41 42
2 42 43
2 43 44
2 44 45
2 45 46
2 46 47
2 47 48
2 48 49
2 49 50

CELL_TYPES 50
4
4
4
4
4
4
4
4
4
4
4
4
4
4
4
4
4
4
4
4
4
4
4
4
4
4
4
4
4
4
4
4
4
4
4
4
4
4
4
4
4
4
4
4
4
4
4
4
4
4

POINT_DATA 51

SCALARS zone float
LOOKUP_TABLE default
1.0
1.0
1.0
1.0
1.0
1.0
1.0
1.0
1.0
1.0
1.0
1.0
1.0
1.0
1.0
1.0
1.0
1.0
1.0
1.0
1.0
1.0
1.0
1.0
1.0
1.0
1.0
1.0
1.0
1.0
1.0
1.0
1.0
1.0
1.0
1.0
1.0
1.0
1.0
1.0
1.0
1.0
1.0
1.0
1.0
1.0
1.0
1.0
1.0
1.0
1.0

VECTORS normals float
-0.00011546154564712197 -0.0006884363247081637 -0.0019505362724885342
-0.00022074757725931704 -0.00153101678006351 -0.0038045402616262436
-0.0002789688587654382 -0.00172307132743299 -0.003653781022876501
-0.00040420211735181516 -0.00179063284303993 -0.0035483336541801687
-0.00044531151070259506 -0.0017546573653817177 -0.0034805708564817905
-0.0003278949297964573 -0.0014627680648118258 -0.0035059528890997176
-9.220571519108489e-5 -0.0011161848669871688 -0.0035512417089194055
0.00013812060933560133 -0.0010397242149338126 -0.003498214296996594
0.0002748481638263911 -0.0010044437367469072 -0.0034301981795579195
0.0003148686664644629 -0.0008950080373324454 -0.0033891727216541767
0.00028992604347877204 -0.0008985936874523759 -0.0033070105127990246
0.00022987906413618475 -0.0009297707001678646 -0.0032148060854524374
0.00015821750275790691 -0.0008849181467667221 -0.0031502740457654
9.200429485645145e-5 -0.0008058691746555269 -0.003098188666626811
4.130187880946323e-5 -0.0007601677789352834 -0.0030339655932039022
9.696207598608453e-6 -0.00076868332689628 -0.0029500091914087534
-4.217552486807108e-6 -0.0008104934240691364 -0.0028539346531033516
-5.062076070316834e-6 -0.0008444245322607457 -0.002760727657005191
1.7121039945777738e-6 -0.0008406897541135548 -0.0026812299620360136
1.1616368283284828e-5 -0.0007996527128852903 -0.0026153093203902245
2.149965257558506e-5 -0.0007443150389008224 -0.0025545936077833176
2.9418395570246506e-5 -0.0006995738949626684 -0.0024900210555642843
3.442417073529214e-5 -0.0006767308805137873 -0.002417478244751692
3.63165709131863e-5 -0.0006743714911863208 -0.0023374799638986588
3.5412773286225274e-5 -0.0006860225112177432 -0.0022523824591189623
3.2357384043280035e-5 -0.0007047692197375 -0.0021647021640092134
2.7964591936324723e-5 -0.0007242999854497612 -0.0020767366513609886
2.309120463905856e-5 -0.0007391567341983318 -0.001990472199395299
1.854042238846887e-5 -0.0007449560798704624 -0.0019075045129284263
1.493051149736857e-5 -0.0007391374092549086 -0.0018287653801962731
1.2542826880235225e-5 -0.0007220174302347004 -0.0017541395500302313
1.1316546078887768e-5 -0.0006966161308810115 -0.0016825278289616108
1.0972400559694506e-5 -0.0006674008327536285 -0.0016123043606057763
1.1129222002637107e-5 -0.0006391585920937359 -0.0015417267568409443
1.1389166502340231e-5 -0.0006162037025205791 -0.0014692246913909912
1.1396474292268977e-5 -0.000601861800532788 -0.0013935876777395606
1.0874458894249983e-5 -0.0005977778346277773 -0.0013142172247171402
9.644884812587406e-6 -0.0006018829299136996 -0.001231866073794663
7.633578206878155e-6 -0.0006073095719330013 -0.0011490340111777186
4.865619757765671e-6 -0.0006048186914995313 -0.0010690835770219564
1.4529367717841524e-6 -0.00058610929409042 -0.0009950363310053945
-2.4232347186625702e-6 -0.0005455345381051302 -0.0009289472945965827
-6.532860879815417e-6 -0.0004785063792951405 -0.0008724865620024501
-1.0618759006320033e-5 -0.00037938947207294405 -0.000827705196570605
-1.4417873899219556e-5 -0.000244768219999969 -0.0007958463393151759
-1.7680962628219277e-5 -7.849762914702296e-5 -0.000775506894569844
-2.018977284024004e-5 0.00010699364065658301 -0.0007621632539667189
-2.1771005776827224e-5 0.00029256369452923536 -0.0007488482515327632
-2.2306650862446986e-5 0.00045588269131258135 -0.0007274345261976123
-2.1740446754847653e-5 0.0005754627636633813 -0.0006901011220179498
-1.058942416420905e-5 0.0003109053650405258 -0.0003332709602545947

CELL_DATA 50

VECTORS liftinglineloading               float
0.12077445536851883 0.1014544814825058 -0.027184646576642987
0.1658335030078888 0.159634068608284 -0.04277381673455238
-0.06965725123882294 0.057702448219060905 -0.015461324714124203
0.14871427416801453 0.07233601063489914 -0.019382376223802567
0.10113068670034409 0.13415135443210602 -0.035945747047662735
-0.5748453140258789 0.4070878028869629 -0.10907884687185287
-1.6995792388916018 0.8591330647468568 -0.23020401597023007
-3.284392118453979 1.3908627033233643 -0.37268054485321045
-5.142932415008545 1.9294952154159546 -0.5170066952705383
-7.230920314788818 2.4891815185546875 -0.6669741868972778
-9.295849800109863 2.9868979454040527 -0.8003368973731995
-11.127419471740723 3.3946840763092045 -0.9096028804779053
-12.309826850891113 3.6072092056274414 -0.9665488004684448
-13.250397682189941 3.7603914737701416 -1.0075938701629639
-13.937824249267578 3.8060500621795654 -1.0198280811309814
-14.443641662597654 3.804749488830566 -1.019479513168335
-14.54397201538086 3.665505409240722 -0.9821692109107972
-14.501641273498533 3.5711963176727295 -0.9568991661071777
-15.174941062927248 3.563367366790772 -0.9548014402389527
-15.116463661193848 3.4333889484405518 -0.9199737906455995
-15.133687019348145 3.3529152870178227 -0.8984109163284302
-15.182715415954588 3.208850383758545 -0.8598088622093201
-15.572235107421875 3.284654140472412 -0.8801203966140747
-15.375847816467285 3.1542487144470215 -0.8451784253120422
-16.263742446899414 3.1790263652801514 -0.8518175482749938
-17.528289794921875 3.103856325149536 -0.8316757678985597
-18.015676498413086 3.0526247024536133 -0.817948341369629
-19.541072845458984 3.2369930744171143 -0.867349684238434
-20.84807014465332 3.2506091594696045 -0.8709980845451355
-24.148300170898438 3.2375376224517822 -0.8674955964088441
-24.864791870117188 3.0773279666900635 -0.8245675563812256
-25.41168785095215 2.8626961708068848 -0.7670571804046631
-25.745830535888672 2.805182456970215 -0.7516463398933411
-25.868759155273438 2.547956705093384 -0.6827229261398315
-25.73263168334961 2.4328763484954834 -0.6518872380256653
-25.3588924407959 2.277308225631714 -0.6102029085159302
-24.772058486938477 2.0557401180267334 -0.5508338809013367
-23.739770889282227 1.9224226474761965 -0.5151116251945496
-22.670555114746094 1.8264201879501345 -0.4893878102302551
-21.606332778930664 1.6739863157272339 -0.4485432803630829
-20.559932708740234 1.581886649131775 -0.42386525869369507
-18.506135940551758 1.5255978107452393 -0.4087826907634735
-15.442975997924805 1.5807266235351562 -0.4235544502735138
-12.935934066772461 1.5408809185028076 -0.41287779808044434
-10.431391716003418 1.7373281717300413 -0.4655157029628754
-8.819429397583008 1.7894206047058105 -0.4794737994670868
-6.985185146331787 1.762153506278992 -0.47216761112213135
-5.355993270874023 1.7476660013198853 -0.4682856798171997
-3.515363931655884 1.7025893926620483 -0.4562074542045593
-1.8952594995498655 1.6515654325485232 -0.4425356090068817