# vtk DataFile Version 4.0
 
ASCII
DATASET UNSTRUCTURED_GRID
POINTS 51 float
0.0032294827979058027 -0.004370850045233965 0.006235727109014988
0.0029985597357153893 -0.00827192235738039 0.007612599991261958
0.0027879877015948296 -0.011979930102825165 0.009297761134803295
0.0024406220763921738 -0.015579485334455965 0.011058742180466652
0.001979583641514182 -0.019076598808169365 0.012879027053713799
0.0015499991131946445 -0.022540627047419548 0.014568056911230087
0.0013237936655059457 -0.026088504120707512 0.015804562717676163
0.00136558769736439 -0.029643109068274495 0.016800427809357643
0.0016000348841771481 -0.0330849327147007 0.017884010449051857
0.0019152839668095112 -0.03650350496172905 0.01880931481719017
0.002229772275313735 -0.03986327722668648 0.019674027338624
0.002495136111974716 -0.04311752691864967 0.020606501027941704
0.002689530374482274 -0.04629288986325264 0.02153356932103634
0.00281157111749053 -0.04941807687282562 0.02237633801996708
0.0028735389932990074 -0.0524892657995224 0.02314530685544014
0.00289417477324605 -0.05548600852489472 0.023896673694252968
0.0028929314576089382 -0.05838928371667861 0.024682672694325447
0.0028857397846877575 -0.06119387596845627 0.025517661124467846
0.002882807282730937 -0.06391073763370514 0.02637152187526226
0.002889164024963975 -0.06655633449554443 0.027199039235711098
0.002906039822846651 -0.06914135813713074 0.027970828115940094
0.0029321631882339716 -0.07166552543640137 0.028687670826911926
0.002964876824989915 -0.0741214007139206 0.029369976371526718
0.003001011675223708 -0.07650048285722733 0.030041132122278214
0.003037509974092245 -0.07879636436700821 0.030718719586730003
0.0030718371272087097 -0.08100524544715881 0.03141317516565323
0.003102224553003907 -0.0831257626414299 0.03212825581431389
0.0031277663074433804 -0.08515872061252594 0.032861776649951935
0.0031484069768339396 -0.08710671216249466 0.03360657021403313
0.0031648471485823393 -0.08897373080253601 0.034351687878370285
0.0031782679725438356 -0.09076423943042755 0.03508484736084938
0.0031899327877908945 -0.09248200803995132 0.03579572215676308
0.0032009012065827847 -0.0941292941570282 0.03647807613015175
0.003211877541616559 -0.09570661187171936 0.03713052719831467
0.003223159583285451 -0.09721274673938751 0.03775639459490776
0.003234656061977148 -0.09864506125450134 0.038362931460142136
0.0032459525391459465 -0.09999992698431015 0.03896011784672737
0.0032564047724008556 -0.10127349942922592 0.03955848887562752
0.0032652423251420264 -0.10246365517377853 0.04016388580203056
0.003271671943366527 -0.1035715639591217 0.04077310860157013
0.0032749734818935394 -0.10460182279348372 0.04137352108955383
0.0032745779026299715 -0.10556163638830185 0.04194532707333565
0.0032701271120458846 -0.10645972192287446 0.042464591562747955
0.0032615121454000473 -0.1073066145181656 0.04290233924984932
0.0032488894648849964 -0.10811512917280196 0.04322336986660957
0.003232676535844803 -0.10889830440282822 0.0433918759226799
0.0032135276123881336 -0.10966614633798599 0.043380364775657654
0.003192296950146556 -0.11042263358831407 0.04317788779735565
0.0031699857208877806 -0.11116383969783783 0.04279523715376854
0.003147683572024107 -0.11187750101089479 0.0422661229968071
0.0031265048310160637 -0.11254404485225677 0.04164431244134903

CELLS 50 150
2 0 1
2 1 2
2 2 3
2 3 4
2 4 5
2 5 6
2 6 7
2 7 8
2 8 9
2 9 10
2 10 11
2 11 12
2 12 13
2 13 14
2 14 15
2 15 16
2 16 17
2 17 18
2 18 19
2 19 20
2 20 21
2 21 22
2 22 23
2 23 24
2 24 25
2 25 26
2 26 27
2 27 28
2 28 29
2 29 30
2 30 31
2 31 32
2 32 33
2 33 34
2 34 35
2 35 36
2 36 37
2 37 38
2 38 39
2 39 40
2 40 41
2 41 42
2 42 43
2 43 44
2 44 45
2 45 46
2 46 47
2 47 48
2 48 49
2 49 50

CELL_TYPES 50
4
4
4
4
4
4
4
4
4
4
4
4
4
4
4
4
4
4
4
4
4
4
4
4
4
4
4
4
4
4
4
4
4
4
4
4
4
4
4
4
4
4
4
4
4
4
4
4
4
4

POINT_DATA 51

SCALARS zone float
LOOKUP_TABLE default
1.0
1.0
1.0
1.0
1.0
1.0
1.0
1.0
1.0
1.0
1.0
1.0
1.0
1.0
1.0
1.0
1.0
1.0
1.0
1.0
1.0
1.0
1.0
1.0
1.0
1.0
1.0
1.0
1.0
1.0
1.0
1.0
1.0
1.0
1.0
1.0
1.0
1.0
1.0
1.0
1.0
1.0
1.0
1.0
1.0
1.0
1.0
1.0
1.0
1.0
1.0

VECTORS normals float
-0.00011546154564712197 -0.0019505362724885342 0.0006884363247081637
-0.00022074757725931704 -0.0038045402616262436 0.00153101678006351
-0.0002789688587654382 -0.003653781022876501 0.00172307132743299
-0.00040420211735181516 -0.0035483336541801687 0.00179063284303993
-0.00044531151070259506 -0.0034805708564817905 0.0017546573653817177
-0.0003278949297964573 -0.0035059528890997176 0.0014627680648118258
-9.220571519108489e-5 -0.0035512417089194055 0.0011161848669871688
0.00013812060933560133 -0.003498214296996594 0.0010397242149338126
0.0002748481638263911 -0.0034301981795579195 0.0010044437367469072
0.0003148686664644629 -0.0033891727216541767 0.0008950080373324454
0.00028992604347877204 -0.0033070105127990246 0.0008985936874523759
0.00022987906413618475 -0.0032148060854524374 0.0009297707001678646
0.00015821750275790691 -0.0031502740457654 0.0008849181467667221
9.200429485645145e-5 -0.003098188666626811 0.0008058691746555269
4.130187880946323e-5 -0.0030339655932039022 0.0007601677789352834
9.696207598608453e-6 -0.0029500091914087534 0.00076868332689628
-4.217552486807108e-6 -0.0028539346531033516 0.0008104934240691364
-5.062076070316834e-6 -0.002760727657005191 0.0008444245322607457
1.7121039945777738e-6 -0.0026812299620360136 0.0008406897541135548
1.1616368283284828e-5 -0.0026153093203902245 0.0007996527128852903
2.149965257558506e-5 -0.0025545936077833176 0.0007443150389008224
2.9418395570246506e-5 -0.0024900210555642843 0.0006995738949626684
3.442417073529214e-5 -0.002417478244751692 0.0006767308805137873
3.63165709131863e-5 -0.0023374799638986588 0.0006743714911863208
3.5412773286225274e-5 -0.0022523824591189623 0.0006860225112177432
3.2357384043280035e-5 -0.0021647021640092134 0.0007047692197375
2.7964591936324723e-5 -0.0020767366513609886 0.0007242999854497612
2.309120463905856e-5 -0.001990472199395299 0.0007391567341983318
1.854042238846887e-5 -0.0019075045129284263 0.0007449560798704624
1.493051149736857e-5 -0.0018287653801962731 0.0007391374092549086
1.2542826880235225e-5 -0.0017541395500302313 0.0007220174302347004
1.1316546078887768e-5 -0.0016825278289616108 0.0006966161308810115
1.0972400559694506e-5 -0.0016123043606057763 0.0006674008327536285
1.1129222002637107e-5 -0.0015417267568409443 0.0006391585920937359
1.1389166502340231e-5 -0.0014692246913909912 0.0006162037025205791
1.1396474292268977e-5 -0.0013935876777395606 0.000601861800532788
1.0874458894249983e-5 -0.0013142172247171402 0.0005977778346277773
9.644884812587406e-6 -0.001231866073794663 0.0006018829299136996
7.633578206878155e-6 -0.0011490340111777186 0.0006073095719330013
4.865619757765671e-6 -0.0010690835770219564 0.0006048186914995313
1.4529367717841524e-6 -0.0009950363310053945 0.00058610929409042
-2.4232347186625702e-6 -0.0009289472945965827 0.0005455345381051302
-6.532860879815417e-6 -0.0008724865620024501 0.0004785063792951405
-1.0618759006320033e-5 -0.000827705196570605 0.00037938947207294405
-1.4417873899219556e-5 -0.0007958463393151759 0.000244768219999969
-1.7680962628219277e-5 -0.000775506894569844 7.849762914702296e-5
-2.018977284024004e-5 -0.0007621632539667189 -0.00010699364065658301
-2.1771005776827224e-5 -0.0007488482515327632 -0.00029256369452923536
-2.2306650862446986e-5 -0.0007274345261976123 -0.00045588269131258135
-2.1740446754847653e-5 -0.0006901011220179498 -0.0005754627636633813
-1.058942416420905e-5 -0.0003332709602545947 -0.0003109053650405258

CELL_DATA 50

VECTORS liftinglineloading               float
0.1372898370027542 -0.029440555721521378 -0.10987365245819092
0.20534141361713412 -0.05028528347611427 -0.18766723573207855
-0.06963231414556503 -0.012803176417946814 -0.04778210446238518
0.13206996023654938 -0.018506137654185295 -0.06906584650278091
0.12703557312488556 -0.033156685531139374 -0.12374243885278702
-0.576259434223175 -0.1093093529343605 -0.4079480469226837
-1.7641232013702393 -0.2355077564716339 -0.8789269328117372
-3.4330267906188965 -0.38102319836616516 -1.4219979047775269
-5.374164581298828 -0.5274226665496826 -1.9683681726455688
-7.577493667602539 -0.6802883148193359 -2.5388705730438232
-9.700299263000488 -0.8152917623519897 -3.042710304260254
-11.772082328796387 -0.9278466105461121 -3.462770700454712
-12.988554954528809 -0.9831600785255432 -3.6692032814025874
-13.934329032897951 -1.0248252153396606 -3.824699640274048
-14.659956932067873 -1.040905237197876 -3.8847110271453857
-15.18808364868164 -1.0409857034683228 -3.8850114345550537
-15.29480838775635 -1.0082753896713257 -3.7629349231719966
-15.231945037841795 -0.9805057048797607 -3.659296989440918
-15.866893768310549 -0.9762146472930909 -3.6432826519012447
-16.18561553955078 -0.9506800174713135 -3.5479860305786133
-16.124483108520508 -0.9255404472351075 -3.4541640281677246
-15.973114013671875 -0.8801544904708861 -3.2847812175750732
-16.31669807434082 -0.896288275718689 -3.3449933528900146
-16.033279418945312 -0.8588004112243652 -3.2050869464874268
-16.8290958404541 -0.8621726632118224 -3.217672109603882
-18.010757446289062 -0.8398504257202148 -3.134364366531372
-18.490400314331055 -0.8258177042007446 -3.081993579864502
-20.004741668701172 -0.8730764985084535 -3.2583656311035156
-21.398216247558594 -0.876281201839447 -3.2703258991241455
-22.52469253540039 -0.8625908493995667 -3.2192330360412598
-23.56041145324707 -0.821869432926178 -3.067258358001709
-24.377206802368164 -0.7688992023468018 -2.8695709705352783
-24.956987380981445 -0.7524583339691162 -2.8082127571105957
-25.298141479492188 -0.6871355772018433 -2.564424753189087
-25.342208862304688 -0.655193567276001 -2.4452157020568848
-25.141199111938477 -0.6122347712516785 -2.284891128540039
-24.693185806274414 -0.5513774156570435 -2.0577685832977295
-23.76985740661621 -0.5148367881774902 -1.921397089958191
-22.781862258911133 -0.48857009410858154 -1.8233684301376345
-21.77587890625 -0.4469801783561706 -1.6681528091430664
-20.77489471435547 -0.4222663640975952 -1.575919508934021
-18.738868713378906 -0.40749990940093994 -1.5208103656768799
-15.68052291870117 -0.42360067367553716 -1.5808992385864258
-13.160587310791014 -0.413521021604538 -1.5432814359664917
-10.632935523986816 -0.4680855572223664 -1.74691903591156
-9.017074584960938 -0.48236721754074097 -1.8002189397811892
-7.1586594581604 -0.4755017161369324 -1.7745965719223025
-5.517373085021973 -0.47202485799789423 -1.7616207599639893
-3.6581754684448238 -0.46103593707084656 -1.7206095457077029
-1.9845740795135498 -0.44754099845886236 -1.6702457666397093