# vtk DataFile Version 4.0
 
ASCII
DATASET UNSTRUCTURED_GRID
POINTS 51 float
0.0032294827979058027 -0.007586372550576925 0.0006599827902391553
0.0029985597357153893 -0.011148679070174694 -0.0014433754840865731
0.0027879877015948296 -0.014823049306869505 -0.0032006734982132907
0.0024406220763921738 -0.018485788255929947 -0.00482615502551198
0.001979583641514182 -0.022128107026219368 -0.006335043348371983
0.0015499991131946445 -0.025648614391684536 -0.007902954705059528
0.0013237936655059457 -0.02887636423110962 -0.009825976565480232
0.00136558769736439 -0.03192409873008728 -0.01190883293747902
0.0016000348841771481 -0.03496653214097023 -0.013848907314240932
0.0019152839668095112 -0.03787277266383171 -0.015872914344072342
0.002229772275313735 -0.04069479927420616 -0.017890820279717445
0.002495136111974716 -0.043500907719135284 -0.019784338772296906
0.002689530374482274 -0.046252164989709854 -0.021620899438858032
0.00281157111749053 -0.0489065945148468 -0.023473208770155907
0.0028735389932990074 -0.05146978422999382 -0.025331594049930573
0.00289417477324605 -0.053971633315086365 -0.02714426070451736
0.0028929314576089382 -0.05643993243575096 -0.02886307053267956
0.0028857397846877575 -0.05888232588768006 -0.030474793165922165
0.002882807282730937 -0.06128279119729995 -0.03200718015432358
0.002889164024963975 -0.06361725926399231 -0.03350190445780754
0.002906039822846651 -0.06587010622024536 -0.03498605266213417
0.0029321631882339716 -0.06804174184799194 -0.03645889833569527
0.002964876824989915 -0.07014302164316177 -0.037901632487773895
0.003001011675223708 -0.07218640297651291 -0.039292700588703156
0.003037509974092245 -0.07418122887611389 -0.04061590135097504
0.0030718371272087097 -0.07613305747509003 -0.04186161607503891
0.003102224553003907 -0.07804388552904129 -0.043026383966207504
0.0031277663074433804 -0.07991255074739456 -0.04411222040653229
0.0031484069768339396 -0.08173523843288422 -0.045125722885131836
0.0031648471485823393 -0.08350612968206406 -0.04607699066400528
0.0031782679725438356 -0.08521868288516998 -0.04697733744978905
0.0031899327877908945 -0.08686739951372147 -0.04783627763390541
0.0032009012065827847 -0.08844897150993347 -0.048659566789865494
0.003211877541616559 -0.0899626612663269 -0.04944847896695137
0.003223159583285451 -0.09141022711992264 -0.05019994452595711
0.003234656061977148 -0.09279553592205048 -0.050907284021377563
0.0032459525391459465 -0.09412389248609543 -0.05156130716204643
0.0032564047724008556 -0.09540090709924698 -0.05215229466557503
0.0032652423251420264 -0.09662968665361404 -0.052674867212772376
0.003271671943366527 -0.09780853241682053 -0.05313197523355484
0.0032749734818935394 -0.0989307165145874 -0.053535260260105126
0.0032745779026299715 -0.09998569637537003 -0.05390297248959541
0.0032701271120458846 -0.10096075385808945 -0.054257165640592575
0.0032615121454000473 -0.10184045881032944 -0.054624542593956
0.0032488894648849964 -0.10260608792304994 -0.055037546902894974
0.003232676535844803 -0.10323859006166457 -0.05552918091416358
0.0032135276123881336 -0.10372332483530043 -0.05612478032708168
0.003192296950146556 -0.10405448079109192 -0.056834433227777474
0.0031699857208877806 -0.10423779487609863 -0.0576481930911541
0.003147683572024107 -0.10429120063781738 -0.05853499844670296
0.0031265048310160637 -0.10424330830574037 -0.05944529175758362

CELLS 50 150
2 0 1
2 1 2
2 2 3
2 3 4
2 4 5
2 5 6
2 6 7
2 7 8
2 8 9
2 9 10
2 10 11
2 11 12
2 12 13
2 13 14
2 14 15
2 15 16
2 16 17
2 17 18
2 18 19
2 19 20
2 20 21
2 21 22
2 22 23
2 23 24
2 24 25
2 25 26
2 26 27
2 27 28
2 28 29
2 29 30
2 30 31
2 31 32
2 32 33
2 33 34
2 34 35
2 35 36
2 36 37
2 37 38
2 38 39
2 39 40
2 40 41
2 41 42
2 42 43
2 43 44
2 44 45
2 45 46
2 46 47
2 47 48
2 48 49
2 49 50

CELL_TYPES 50
4
4
4
4
4
4
4
4
4
4
4
4
4
4
4
4
4
4
4
4
4
4
4
4
4
4
4
4
4
4
4
4
4
4
4
4
4
4
4
4
4
4
4
4
4
4
4
4
4
4

POINT_DATA 51

SCALARS zone float
LOOKUP_TABLE default
1.0
1.0
1.0
1.0
1.0
1.0
1.0
1.0
1.0
1.0
1.0
1.0
1.0
1.0
1.0
1.0
1.0
1.0
1.0
1.0
1.0
1.0
1.0
1.0
1.0
1.0
1.0
1.0
1.0
1.0
1.0
1.0
1.0
1.0
1.0
1.0
1.0
1.0
1.0
1.0
1.0
1.0
1.0
1.0
1.0
1.0
1.0
1.0
1.0
1.0
1.0

VECTORS normals float
-0.00011546154564712197 -0.001781153376214206 -0.0010516791371628642
-0.00022074757725931704 -0.003618338145315647 -0.001930328202433884
-0.0002789688587654382 -0.0036685543600469828 -0.0016913898289203642
-0.00040420211735181516 -0.003652529325336218 -0.0015671848086640239
-0.00044531151070259506 -0.0035814133007079363 -0.001538399956189096
-0.0003278949297964573 -0.003374128369614482 -0.001745466492138803
-9.220571519108489e-5 -0.003137741470709443 -0.0020029391162097454
0.00013812060933560133 -0.003045083722099662 -0.0020114656072109938
0.0002748481638263911 -0.0029743374325335026 -0.0019820404704660177
0.0003148686664644629 -0.002864134032279253 -0.0020209567155689
0.00028992604347877204 -0.0028140682261437178 -0.001955712214112282
0.00022987906413618475 -0.0027786833234131336 -0.0018650392303243282
0.00015821750275790691 -0.002702843863517046 -0.00184443558100611
9.200429485645145e-5 -0.002608808921650052 -0.001855347421951592
4.130187880946323e-5 -0.002532517770305276 -0.001835525967180729
9.696207598608453e-6 -0.002485075034201145 -0.001765738008543849
-4.217552486807108e-6 -0.0024553476832807064 -0.0016652656486257909
-5.062076070316834e-6 -0.0024214282166212797 -0.0015720544615760446
1.7121039945777738e-6 -0.0023674671538174152 -0.0015135564608499408
1.1616368283284828e-5 -0.0022936579771339893 -0.0014894363703206182
2.149965257558506e-5 -0.0022122394293546677 -0.0014784957747906446
2.9418395570246506e-5 -0.0021364593412727118 -0.001457789447158575
3.442417073529214e-5 -0.00207233102992177 -0.0014169015921652317
3.63165709131863e-5 -0.0020191017538309097 -0.0013571359449997544
3.5412773286225274e-5 -0.001973327249288559 -0.0012844583252444863
3.2357384043280035e-5 -0.0019313283264636996 -0.001205241191200912
2.7964591936324723e-5 -0.0018897465197369454 -0.0011253015836700797
2.309120463905856e-5 -0.001845677848905325 -0.0010496694594621658
1.854042238846887e-5 -0.0017967897001653908 -0.0009823846630752087
1.493051149736857e-5 -0.0017417197814211252 -0.0009258071659132839
1.2542826880235225e-5 -0.0016806365456432104 -0.0008796449983492494
1.1316546078887768e-5 -0.0016151469899341464 -0.0008411149028688668
1.0972400559694506e-5 -0.0015476279659196734 -0.000806099793408066
1.1129222002637107e-5 -0.0014806267572566867 -0.0007701879949308932
1.1389166502340231e-5 -0.0014164388412609696 -0.0007294032839126885
1.1396474292268977e-5 -0.0013568338472396135 -0.0006806808523833752
1.0874458894249983e-5 -0.0013026868691667914 -0.0006225045653991401
9.644884812587406e-6 -0.0012528973165899515 -0.0005567813059315085
7.633578206878155e-6 -0.0012038109125569463 -0.0004898399929516017
4.865619757765671e-6 -0.001150511670857668 -0.0004301955923438072
1.4529367717841524e-6 -0.0010885827941820025 -0.00038549822056666017
-2.4232347186625702e-6 -0.0010150194866582751 -0.0003609520790632814
-6.532860879815417e-6 -0.0009273806936107576 -0.00036078551784157753
-1.0618759006320033e-5 -0.0008226678473874927 -0.00039019211544655263
-1.4417873899219556e-5 -0.0006990635301917791 -0.00045231968397274613
-1.7680962628219277e-5 -0.0005586189217865467 -0.0005436154315248132
-2.018977284024004e-5 -0.0004079471982549876 -0.0006526251090690494
-2.1771005776827224e-5 -0.0002572335652075708 -0.0007617073715664446
-2.2306650862446986e-5 -0.00011835948680527508 -0.0008502829005010426
-2.1740446754847653e-5 -2.758410573733272e-6 -0.000898548460099846
-1.058942416420905e-5 2.3944885469973087e-5 -0.00045514648081734776

CELL_DATA 50

VECTORS liftinglineloading               float
0.1574527472257614 0.07271361351013184 -0.10384580492973328
0.23993584513664246 0.12652000784873962 -0.18068929016590118
-0.09032152593135834 0.03186225891113281 -0.045504022389650345
0.10778336226940155 0.03905856981873512 -0.055781420320272446
0.20134030282497406 0.05810209736227989 -0.08297839760780334
-0.451908677816391 0.21632467210292816 -0.30894365906715393
-1.615360975265503 0.4986335337162017 -0.7121224403381348
-3.268229007720947 0.8308807611465454 -1.1866207122802734
-5.211206436157227 1.1615281105041504 -1.6588339805603027
-7.385755538940431 1.5012890100479126 -2.1440629959106445
-9.529949188232422 1.8018338680267334 -2.5732853412628174
-11.441741943359375 2.0449373722076416 -2.920473098754883
-12.691064834594727 2.171024799346924 -3.1005449295043945
-13.677763938903809 2.2633280754089355 -3.232367515563965
-14.425724029541016 2.295919179916382 -3.278912305831909
-14.983847618103026 2.2967007160186768 -3.2800285816192627
-15.12826156616211 2.222878932952881 -3.1745998859405518
-15.117298126220701 2.165074348449707 -3.0920467376708984
-15.824140548706056 2.1599650382995605 -3.084749698638916
-15.75480651855469 2.0788066387176514 -2.968843460083008
-15.754124641418455 2.027625560760498 -2.89574933052063
-15.717554092407227 1.934544801712036 -2.7628161907196045
-16.074594497680664 1.9738318920135498 -2.8189239501953125
-15.85227584838867 1.893765091896057 -2.7045769691467285
-16.721338272094727 1.9048609733581543 -2.720423460006714
-17.975177764892578 1.8582848310470579 -2.6539056301116943
-18.51820945739746 1.829472303390503 -2.6127572059631348
-20.07062530517578 1.9346516132354734 -2.7629690170288086
-21.48673439025879 1.9419784545898438 -2.773432731628418
-22.574419021606445 1.9099419116973877 -2.72767972946167
-23.538955688476562 1.819463849067688 -2.598463773727417
-24.297035217285156 1.7026443481445312 -2.4316282272338867
-24.82258415222168 1.666427731513977 -2.3799054622650146
-25.106660842895508 1.5247325897216797 -2.177543878555298
-25.09878921508789 1.4555435180664062 -2.0787315368652344
-24.849451065063477 1.3618930578231812 -1.9449849128723145
-24.293779373168945 1.228119134902954 -1.753935933113098
-23.388427734375 1.147296667098999 -1.6385095119476316
-22.396726608276367 1.0885984897613525 -1.5546797513961792
-21.39841079711914 0.9980399012565612 -1.4253486394882202
-20.39837646484375 0.9418427348136902 -1.3450908660888672
-18.387014389038086 0.9072514176368713 -1.2956892251968384
-15.354076385498047 0.9384989738464355 -1.3403154611587524
-12.869279861450195 0.9144327640533447 -1.3059453964233398
-10.379373550415039 1.0299476385116577 -1.4709175825119019
-8.769640922546387 1.0606348514556885 -1.514743447303772
-6.938284873962402 1.0439294576644897 -1.4908857345581055
-5.310115337371826 1.0348681211471558 -1.4779447317123413
-3.49853515625 1.0094746351242065 -1.4416792392730713
-1.880777955055237 0.9783885478973389 -1.397283673286438