# vtk DataFile Version 4.0
 
ASCII
DATASET UNSTRUCTURED_GRID
POINTS 51 float
0.0032294827979058027 -0.0038107382133603096 0.0065929433330893525
0.0029985597357153893 -0.007576963864266872 0.008304577320814133
0.0027879877015948296 -0.011123989708721638 0.010306499898433685
0.0024406220763921738 -0.014556366950273516 0.01237450260668993
0.001979583641514182 -0.017881523817777634 0.014492653310298921
0.0015499991131946445 -0.021185163408517838 0.01647716574370861
0.0013237936655059457 -0.02461177110671997 0.01801818422973156
0.00136558769736439 -0.028066055849194523 0.019320063292980194
0.0016000348841771481 -0.03140033781528473 0.020699499174952507
0.0019152839668095112 -0.034725259989500046 0.02191922999918461
0.002229772275313735 -0.03799688071012497 0.023073475807905197
0.002495136111974716 -0.04115747660398483 0.024286027997732162
0.002689530374482274 -0.04423995688557625 0.025486318394541737
0.00281157111749053 -0.04727979749441147 0.026598257943987846
0.0028735389932990074 -0.05027228221297264 0.02763197384774685
0.00289417477324605 -0.0531921349465847 0.02864166349172592
0.0028929314576089382 -0.05601586028933526 0.02967770956456661
0.0028857397846877575 -0.05873700603842735 0.030753955245018005
0.002882807282730937 -0.06136910989880562 0.03184136003255844
0.002889164024963975 -0.06393251568078995 0.03289630636572838
0.002906039822846651 -0.06644044071435928 0.03389045596122742
0.0029321631882339716 -0.06889251619577408 0.034824565052986145
0.002964876824989915 -0.07127958536148071 0.035718321800231934
0.003001011675223708 -0.07359111309051514 0.036594271659851074
0.003037509974092245 -0.07581920176744461 0.03746937960386276
0.0030718371272087097 -0.07795915752649307 0.03835371136665344
0.003102224553003907 -0.08000928163528442 0.03925088793039322
0.0031277663074433804 -0.08197057247161865 0.04015880078077316
0.0031484069768339396 -0.08384623378515244 0.04107053950428963
0.0031648471485823393 -0.08564120531082153 0.04197554290294647
0.0031782679725438356 -0.08736100792884827 0.04286196082830429
0.0031899327877908945 -0.08901028335094452 0.04371984675526619
0.0032009012065827847 -0.09059183299541473 0.044543176889419556
0.003211877541616559 -0.09210628271102905 0.04533061385154724
0.003223159583285451 -0.09355214238166809 0.04608536884188652
0.003234656061977148 -0.0949261412024498 0.046814434230327606
0.0032459525391459465 -0.09622380137443542 0.047527432441711426
0.0032564047724008556 -0.09744037687778473 0.048234522342681885
0.0032652423251420264 -0.098573237657547 0.048941344022750854
0.003271671943366527 -0.09962383657693863 0.04964480921626091
0.0032749734818935394 -0.10059784352779388 0.05033273249864578
0.0032745779026299715 -0.1015041694045067 0.050986014306545265
0.0032701271120458846 -0.10235357284545898 0.05158157646656037
0.0032615121454000473 -0.1031590923666954 0.05209147185087204
0.0032488894648849964 -0.1039365530014038 0.052481748163700104
0.003232676535844803 -0.10470206290483475 0.05271786823868751
0.0032135276123881336 -0.10546798259019852 0.05277332291007042
0.003192296950146556 -0.10623923689126968 0.052637550979852676
0.0031699857208877806 -0.10701097548007965 0.052320957183837884
0.003147683572024107 -0.10776803642511368 0.05185605585575103
0.0031265048310160637 -0.10848623514175415 0.05129470303654671

CELLS 50 150
2 0 1
2 1 2
2 2 3
2 3 4
2 4 5
2 5 6
2 6 7
2 7 8
2 8 9
2 9 10
2 10 11
2 11 12
2 12 13
2 13 14
2 14 15
2 15 16
2 16 17
2 17 18
2 18 19
2 19 20
2 20 21
2 21 22
2 22 23
2 23 24
2 24 25
2 25 26
2 26 27
2 27 28
2 28 29
2 29 30
2 30 31
2 31 32
2 32 33
2 33 34
2 34 35
2 35 36
2 36 37
2 37 38
2 38 39
2 39 40
2 40 41
2 41 42
2 42 43
2 43 44
2 44 45
2 45 46
2 46 47
2 47 48
2 48 49
2 49 50

CELL_TYPES 50
4
4
4
4
4
4
4
4
4
4
4
4
4
4
4
4
4
4
4
4
4
4
4
4
4
4
4
4
4
4
4
4
4
4
4
4
4
4
4
4
4
4
4
4
4
4
4
4
4
4

POINT_DATA 51

SCALARS zone float
LOOKUP_TABLE default
1.0
1.0
1.0
1.0
1.0
1.0
1.0
1.0
1.0
1.0
1.0
1.0
1.0
1.0
1.0
1.0
1.0
1.0
1.0
1.0
1.0
1.0
1.0
1.0
1.0
1.0
1.0
1.0
1.0
1.0
1.0
1.0
1.0
1.0
1.0
1.0
1.0
1.0
1.0
1.0
1.0
1.0
1.0
1.0
1.0
1.0
1.0
1.0
1.0
1.0
1.0

VECTORS normals float
-0.00011546154564712197 -0.0018831127090379598 0.0008558170520700514
-0.00022074757725931704 -0.003656625747680664 0.0018567783990874884
-0.0002789688587654382 -0.0034897017758339643 0.002034962410107255
-0.00040420211735181516 -0.0033787672873586416 0.0020930764731019735
-0.00044531151070259506 -0.0033143977634608746 0.0020513320341706276
-0.0003278949297964573 -0.0033651229459792376 0.0017627656925469637
-9.220571519108489e-5 -0.0034404462203383446 0.00142144865822047
0.00013812060933560133 -0.003394284518435597 0.00134065723977983
0.0002748481638263911 -0.003329602302983403 0.0012995830038562417
0.0003148686664644629 -0.0032982707489281897 0.0011869880836457014
0.00028992604347877204 -0.0032161087729036804 0.0011833992321044207
0.00022987906413618475 -0.0031215378548949957 0.0012064215261489153
0.00015821750275790691 -0.0030611606780439615 0.0011561152059584856
9.200429485645145e-5 -0.00301616289652884 0.0010728274937719107
4.130187880946323e-5 -0.0029561673291027546 0.0010217026574537158
9.696207598608453e-6 -0.002871788339689374 0.0010228684404864907
-4.217552486807108e-6 -0.002772435313090682 0.0010561459930613637
-5.062076070316834e-6 -0.0026766257360577583 0.0010818245355039835
1.7121039945777738e-6 -0.0025977562181651592 0.001071175211109221
1.1616368283284828e-5 -0.002535663079470396 0.0010245490120723844
2.149965257558506e-5 -0.0024800014216452837 0.0009641302167437972
2.9418395570246506e-5 -0.0024195739533752203 0.0009139314061030746
3.442417073529214e-5 -0.002349297981709242 0.0008848528377711774
3.63165709131863e-5 -0.0022698098327964544 0.0008755301241762935
3.5412773286225274e-5 -0.0021840205881744623 0.0008797200862318277
3.2357384043280035e-5 -0.0020950401667505503 0.0008907535811886191
2.7964591936324723e-5 -0.0020057072397321463 0.0009025433100759983
2.309120463905856e-5 -0.0019184761913493276 0.0009098250884562732
1.854042238846887e-5 -0.001835318631492555 0.0009083712357096374
1.493051149736857e-5 -0.0017573862569406629 0.0008957121754065156
1.2542826880235225e-5 -0.0016845365753397348 0.0008721532649360597
1.1316546078887768e-5 -0.0016154112527146935 0.0008406072738580405
1.0972400559694506e-5 -0.0015480013098567724 0.0008053827914409338
1.1129222002637107e-5 -0.001480153645388782 0.0007710967329330742
1.1389166502340231e-5 -0.0014099280815571547 0.0007419102475978434
1.1396474292268977e-5 -0.0013358290307223797 0.0007210306939668953
1.0874458894249983e-5 -0.0012571164406836033 0.0007100446964614093
9.644884812587406e-6 -0.00117472093552351 0.0007069567800499499
7.633578206878155e-6 -0.0010917310137301683 0.0007051434949971735
4.865619757765671e-6 -0.001012302003800869 0.0006956939469091594
1.4529367717841524e-6 -0.000940167054068297 0.0006706020794808865
-2.4232347186625702e-6 -0.0008778659394010903 0.0006244216929189861
-6.532860879815417e-6 -0.0008274618885479867 0.0005527277244254947
-1.0618759006320033e-5 -0.0007914895541034639 0.00045008503366261715
-1.4417873899219556e-5 -0.0007714849780313671 0.00031319938716478646
-1.7680962628219277e-5 -0.0007657143869437277 0.00014578881382476538
-2.018977284024004e-5 -0.0007685880991630256 -4.015959348180331e-5
-2.1771005776827224e-5 -0.0007714972598478198 -0.00022618398361373693
-2.2306650862446986e-5 -0.0007643991848453879 -0.0003907478239852935
-2.1740446754847653e-5 -0.0007376299472525716 -0.0005131266661919653
-1.058942416420905e-5 -0.00035909994039684534 -0.00028067579842172563

CELL_DATA 50

VECTORS liftinglineloading               float
0.1361263394355774 -0.03864302486181259 -0.10617084056138992
0.20333316922187805 -0.06590594351291656 -0.1810750961303711
-0.06930921971797943 -0.016956321895122528 -0.04658711329102516
0.132353737950325 -0.02442794106900692 -0.06711521744728088
0.12561197578907013 -0.04386221244931221 -0.12051043659448625
-0.5760648250579834 -0.14427593350410461 -0.39639487862586975
-1.761990547180176 -0.31076058745384216 -0.8538076877593995
-3.429453134536743 -0.502867579460144 -1.3816174268722534
-5.370232105255127 -0.6962805986404419 -1.913015127182007
-7.575272560119629 -0.89837646484375 -2.468269109725952
-9.747586250305176 -1.0781307220458984 -2.962139844894409
-11.536925315856934 -1.2182097434997559 -3.347003698348999
-13.016149520874023 -1.300488829612732 -3.573063850402832
-13.925294876098635 -1.3532320261001587 -3.717974424362182
-14.698214530944822 -1.3763606548309326 -3.781519651412964
-15.2702579498291 -1.378149390220642 -3.7864344120025635
-15.418402671813963 -1.3375766277313232 -3.674961566925049
-15.396709442138672 -1.302183985710144 -3.5777211189270024
-16.083707809448242 -1.2983036041259766 -3.5670597553253174
-15.97282409667969 -1.2481266260147095 -3.4291996955871578
-15.921394348144531 -1.2157342433929443 -3.340202331542969
-15.816366195678711 -1.1578047275543213 -3.181042432785034
-16.114004135131836 -1.1793997287750244 -3.2403740882873535
-15.8319149017334 -1.130069375038147 -3.1048402786254883
-16.651325225830078 -1.135750651359558 -3.1204493045806885
-17.873863220214844 -1.1074421405792236 -3.0426723957061768
-18.389230728149414 -1.089697241783142 -2.9939186573028564
-19.953813552856445 -1.1535948514938354 -3.169475793838501
-21.385496139526367 -1.1584802865982056 -3.1828982830047607
-22.43733787536621 -1.1391063928604126 -3.129668951034546
-23.53159523010254 -1.0860563516616821 -2.983915328979492
-24.34730339050293 -1.0162407159805298 -2.7920982837677
-24.93259048461914 -0.9945079684257508 -2.7323882579803467
-25.28113555908203 -0.9083898067474364 -2.4957804679870605
-25.331092834472656 -0.866169035434723 -2.379779815673828
-25.123929977416992 -0.809433102607727 -2.2238993644714355
-24.673913955688477 -0.7289808392524719 -2.0028584003448486
-23.75108528137207 -0.68070387840271 -1.8702186346054077
-22.792341232299805 -0.6457419395446777 -1.7741613388061523
-21.78879737854004 -0.5907461047172546 -1.6230616569519043
-20.78953742980957 -0.5580927729606628 -1.533347249031067
-18.753665924072266 -0.5386044383049011 -1.4798035621643066
-15.69449234008789 -0.5599642992019653 -1.5384892225265503
-13.173254013061523 -0.5466781258583069 -1.5019859075546265
-10.644034385681152 -0.6189051270484924 -1.7004278898239138
-9.027813911437988 -0.6378148794174194 -1.7523819208145142
-7.168423652648926 -0.6287839412689209 -1.7275696992874146
-5.512162208557129 -0.623593270778656 -1.7133084535598757
-3.6525211334228516 -0.6089752316474915 -1.6731456518173216
-1.9793906211853027 -0.5910106301307678 -1.6237883567810059