# vtk DataFile Version 4.0
 
ASCII
DATASET UNSTRUCTURED_GRID
POINTS 51 float
0.0032294827979058027 0.0065929433330893525 0.0038107382133603096
0.0029985597357153893 0.008304577320814133 0.007576963864266872
0.0027879877015948296 0.010306499898433685 0.011123989708721638
0.0024406220763921738 0.01237450260668993 0.014556366950273516
0.001979583641514182 0.014492653310298921 0.017881523817777634
0.0015499991131946445 0.01647716574370861 0.021185163408517838
0.0013237936655059457 0.01801818422973156 0.02461177110671997
0.00136558769736439 0.019320063292980194 0.028066055849194523
0.0016000348841771481 0.020699499174952507 0.03140033781528473
0.0019152839668095112 0.02191922999918461 0.034725259989500046
0.002229772275313735 0.023073475807905197 0.03799688071012497
0.002495136111974716 0.024286027997732162 0.04115747660398483
0.002689530374482274 0.025486318394541737 0.04423995688557625
0.00281157111749053 0.026598257943987846 0.04727979749441147
0.0028735389932990074 0.02763197384774685 0.05027228221297264
0.00289417477324605 0.02864166349172592 0.0531921349465847
0.0028929314576089382 0.02967770956456661 0.05601586028933526
0.0028857397846877575 0.030753955245018005 0.05873700603842735
0.002882807282730937 0.03184136003255844 0.06136910989880562
0.002889164024963975 0.03289630636572838 0.06393251568078995
0.002906039822846651 0.03389045596122742 0.06644044071435928
0.0029321631882339716 0.034824565052986145 0.06889251619577408
0.002964876824989915 0.035718321800231934 0.07127958536148071
0.003001011675223708 0.036594271659851074 0.07359111309051514
0.003037509974092245 0.03746937960386276 0.07581920176744461
0.0030718371272087097 0.03835371136665344 0.07795915752649307
0.003102224553003907 0.03925088793039322 0.08000928163528442
0.0031277663074433804 0.04015880078077316 0.08197057247161865
0.0031484069768339396 0.04107053950428963 0.08384623378515244
0.0031648471485823393 0.04197554290294647 0.08564120531082153
0.0031782679725438356 0.04286196082830429 0.08736100792884827
0.0031899327877908945 0.04371984675526619 0.08901028335094452
0.0032009012065827847 0.044543176889419556 0.09059183299541473
0.003211877541616559 0.04533061385154724 0.09210628271102905
0.003223159583285451 0.04608536884188652 0.09355214238166809
0.003234656061977148 0.046814434230327606 0.0949261412024498
0.0032459525391459465 0.047527432441711426 0.09622380137443542
0.0032564047724008556 0.048234522342681885 0.09744037687778473
0.0032652423251420264 0.048941344022750854 0.098573237657547
0.003271671943366527 0.04964480921626091 0.09962383657693863
0.0032749734818935394 0.05033273249864578 0.10059784352779388
0.0032745779026299715 0.050986014306545265 0.1015041694045067
0.0032701271120458846 0.05158157646656037 0.10235357284545898
0.0032615121454000473 0.05209147185087204 0.1031590923666954
0.0032488894648849964 0.052481748163700104 0.1039365530014038
0.003232676535844803 0.05271786823868751 0.10470206290483475
0.0032135276123881336 0.05277332291007042 0.10546798259019852
0.003192296950146556 0.052637550979852676 0.10623923689126968
0.0031699857208877806 0.052320957183837884 0.10701097548007965
0.003147683572024107 0.05185605585575103 0.10776803642511368
0.0031265048310160637 0.05129470303654671 0.10848623514175415

CELLS 50 150
2 0 1
2 1 2
2 2 3
2 3 4
2 4 5
2 5 6
2 6 7
2 7 8
2 8 9
2 9 10
2 10 11
2 11 12
2 12 13
2 13 14
2 14 15
2 15 16
2 16 17
2 17 18
2 18 19
2 19 20
2 20 21
2 21 22
2 22 23
2 23 24
2 24 25
2 25 26
2 26 27
2 27 28
2 28 29
2 29 30
2 30 31
2 31 32
2 32 33
2 33 34
2 34 35
2 35 36
2 36 37
2 37 38
2 38 39
2 39 40
2 40 41
2 41 42
2 42 43
2 43 44
2 44 45
2 45 46
2 46 47
2 47 48
2 48 49
2 49 50

CELL_TYPES 50
4
4
4
4
4
4
4
4
4
4
4
4
4
4
4
4
4
4
4
4
4
4
4
4
4
4
4
4
4
4
4
4
4
4
4
4
4
4
4
4
4
4
4
4
4
4
4
4
4
4

POINT_DATA 51

SCALARS zone float
LOOKUP_TABLE default
1.0
1.0
1.0
1.0
1.0
1.0
1.0
1.0
1.0
1.0
1.0
1.0
1.0
1.0
1.0
1.0
1.0
1.0
1.0
1.0
1.0
1.0
1.0
1.0
1.0
1.0
1.0
1.0
1.0
1.0
1.0
1.0
1.0
1.0
1.0
1.0
1.0
1.0
1.0
1.0
1.0
1.0
1.0
1.0
1.0
1.0
1.0
1.0
1.0
1.0
1.0

VECTORS normals float
-0.00011546154564712197 0.0008558170520700514 0.0018831127090379598
-0.00022074757725931704 0.0018567783990874884 0.003656625747680664
-0.0002789688587654382 0.002034962410107255 0.0034897017758339643
-0.00040420211735181516 0.0020930764731019735 0.0033787672873586416
-0.00044531151070259506 0.0020513320341706276 0.0033143977634608746
-0.0003278949297964573 0.0017627656925469637 0.0033651229459792376
-9.220571519108489e-5 0.00142144865822047 0.0034404462203383446
0.00013812060933560133 0.00134065723977983 0.003394284518435597
0.0002748481638263911 0.0012995830038562417 0.003329602302983403
0.0003148686664644629 0.0011869880836457014 0.0032982707489281897
0.00028992604347877204 0.0011833992321044207 0.0032161087729036804
0.00022987906413618475 0.0012064215261489153 0.0031215378548949957
0.00015821750275790691 0.0011561152059584856 0.0030611606780439615
9.200429485645145e-5 0.0010728274937719107 0.00301616289652884
4.130187880946323e-5 0.0010217026574537158 0.0029561673291027546
9.696207598608453e-6 0.0010228684404864907 0.002871788339689374
-4.217552486807108e-6 0.0010561459930613637 0.002772435313090682
-5.062076070316834e-6 0.0010818245355039835 0.0026766257360577583
1.7121039945777738e-6 0.001071175211109221 0.0025977562181651592
1.1616368283284828e-5 0.0010245490120723844 0.002535663079470396
2.149965257558506e-5 0.0009641302167437972 0.0024800014216452837
2.9418395570246506e-5 0.0009139314061030746 0.0024195739533752203
3.442417073529214e-5 0.0008848528377711774 0.002349297981709242
3.63165709131863e-5 0.0008755301241762935 0.0022698098327964544
3.5412773286225274e-5 0.0008797200862318277 0.0021840205881744623
3.2357384043280035e-5 0.0008907535811886191 0.0020950401667505503
2.7964591936324723e-5 0.0009025433100759983 0.0020057072397321463
2.309120463905856e-5 0.0009098250884562732 0.0019184761913493276
1.854042238846887e-5 0.0009083712357096374 0.001835318631492555
1.493051149736857e-5 0.0008957121754065156 0.0017573862569406629
1.2542826880235225e-5 0.0008721532649360597 0.0016845365753397348
1.1316546078887768e-5 0.0008406072738580405 0.0016154112527146935
1.0972400559694506e-5 0.0008053827914409338 0.0015480013098567724
1.1129222002637107e-5 0.0007710967329330742 0.001480153645388782
1.1389166502340231e-5 0.0007419102475978434 0.0014099280815571547
1.1396474292268977e-5 0.0007210306939668953 0.0013358290307223797
1.0874458894249983e-5 0.0007100446964614093 0.0012571164406836033
9.644884812587406e-6 0.0007069567800499499 0.00117472093552351
7.633578206878155e-6 0.0007051434949971735 0.0010917310137301683
4.865619757765671e-6 0.0006956939469091594 0.001012302003800869
1.4529367717841524e-6 0.0006706020794808865 0.000940167054068297
-2.4232347186625702e-6 0.0006244216929189861 0.0008778659394010903
-6.532860879815417e-6 0.0005527277244254947 0.0008274618885479867
-1.0618759006320033e-5 0.00045008503366261715 0.0007914895541034639
-1.4417873899219556e-5 0.00031319938716478646 0.0007714849780313671
-1.7680962628219277e-5 0.00014578881382476538 0.0007657143869437277
-2.018977284024004e-5 -4.015959348180331e-5 0.0007685880991630256
-2.1771005776827224e-5 -0.00022618398361373693 0.0007714972598478198
-2.2306650862446986e-5 -0.0003907478239852935 0.0007643991848453879
-2.1740446754847653e-5 -0.0005131266661919653 0.0007376299472525716
-1.058942416420905e-5 -0.00028067579842172563 0.00035909994039684534

CELL_DATA 50

VECTORS liftinglineloading               float
0.19019001722335815 -0.1359906792640686 0.04949655756354332
0.2815680503845215 -0.23339660465717316 0.08494941145181656
-0.24475879967212674 -0.14667832851409912 0.053386542946100235
0.06466685235500336 -0.05425992980599404 0.019748998805880547
0.3002249598503113 -0.05484270676970482 0.01996111311018467
-0.25523367524147034 -0.280150443315506 0.10196641832590105
-1.3854037523269653 -0.7430276274681091 0.2704399526119232
-3.0386130809783936 -1.3137469291687012 0.47816476225852966
-5.0212178230285645 -1.8777759075164793 0.6834545135498047
-7.213843822479249 -2.4455740451812744 0.8901162147521972
-9.425962448120117 -2.9556005001068115 1.0757505893707275
-11.473695755004883 -3.3816757202148433 1.2308293581008911
-12.713083267211914 -3.5833275318145748 1.3042244911193848
-13.729440689086912 -3.7369766235351562 1.360148310661316
-14.501839637756348 -3.790847778320313 1.3797557353973389
-15.090739250183105 -3.794186353683472 1.38097083568573
-15.273802757263182 -3.6754281520843506 1.3377463817596436
-15.318839073181152 -3.585444688796997 1.3049951791763306
-16.115549087524414 -3.584935665130615 1.3048099279403687
-16.133197784423828 -3.456608772277832 1.2581026554107666
-16.297428131103516 -3.386029481887818 1.2324140071868896
-16.37635040283203 -3.239624500274658 1.1791268587112427
-16.88711929321289 -3.3075172901153564 1.2038378715515137
-16.807857513427734 -3.1815686225891113 1.1579962968826294
-17.783483505249023 -3.195786476135254 1.1631711721420288
-19.06840705871582 -3.113818407058716 1.1333372592926025
-19.681753158569336 -3.066689968109131 1.116183876991272
-21.124610900878906 -3.214261531829834 1.1698955297470093
-22.458471298217773 -3.214153289794922 1.1698561906814575
-23.417665481567383 -3.149148464202881 1.1461962461471558
-24.156591415405273 -2.9944422245025635 1.0898878574371338
-24.70248794555664 -2.794778823852539 1.0172163248062134
-25.0300350189209 -2.7358288764953613 0.9957602620124817
-25.144710540771484 -2.502964735031128 0.9110046625137329
-24.983430862426758 -2.3930294513702393 0.8709915280342103
-24.619943618774414 -2.2428998947143555 0.8163487911224364
-24.023578643798828 -2.0211994647979736 0.7356564402580261
-23.0423526763916 -1.8907244205474851 0.68816739320755
-21.9824275970459 -1.794887900352478 0.6532857418060303
-20.948881149291992 -1.6505910158157349 0.6007660031318665
-19.921777725219727 -1.5562255382537842 0.566419780254364
-17.925779342651367 -1.4960546493530273 0.5445193648338318
-14.924814224243162 -1.5375654697418213 0.5596280694007874
-12.492236137390137 -1.494391679763794 0.5439140796661377
-10.063589096069336 -1.671177625656128 0.6082589030265808
-8.470894813537598 -1.7193764448165894 0.6258018016815186
-6.6725263595581055 -1.688167691230774 0.614442765712738
-5.090853214263916 -1.6732318401336672 0.6090065836906433
-3.345050096511841 -1.6306105852127075 0.5934937000274658
-1.7905451059341428 -1.5786532163619995 0.5745828151702881