# vtk DataFile Version 4.0
 
ASCII
DATASET UNSTRUCTURED_GRID
POINTS 51 float
0.0032294827979058027 -0.0026079921517521143 0.007154509425163269
0.0029985597357153893 -0.006019778084009886 0.009494137950241566
0.0027879877015948296 -0.009165287017822266 0.012081582099199295
0.0024406220763921738 -0.012186413630843163 0.014714192599058151
0.001979583641514182 -0.015093240886926651 0.017377572134137154
0.0015499991131946445 -0.018002081662416458 0.019905606284737587
0.0013237936655059457 -0.02110903710126877 0.02201823703944683
0.00136558769736439 -0.02428477443754673 0.023900168016552925
0.0016000348841771481 -0.027328867465257648 0.025837639346718788
0.0019152839668095112 -0.030391471460461613 0.02761620469391346
0.002229772275313735 -0.033412955701351166 0.029321026057004932
0.002495136111974716 -0.03631497919559479 0.0310639888048172
0.002689530374482274 -0.039142198860645294 0.03278131037950516
0.00281157111749053 -0.0419427715241909 0.034404221922159195
0.0028735389932990074 -0.04471029341220856 0.035941872745752335
0.00289417477324605 -0.04741045460104942 0.03744325041770935
0.0028929314576089382 -0.050011374056339264 0.03895388916134834
0.0028857397846877575 -0.05250428989529609 0.04048630967736244
0.002882807282730937 -0.05490758270025253 0.04201425239443779
0.002889164024963975 -0.05724885314702988 0.04349830374121666
0.002906039822846651 -0.05954604223370552 0.04491284489631653
0.0029321631882339716 -0.061798665672540665 0.04625856503844261
0.002964876824989915 -0.06399426609277725 0.04755324870347977
0.003001011675223708 -0.06611857563257217 0.048817288130521774
0.003037509974092245 -0.06816085427999496 0.05006600171327591
0.0030718371272087097 -0.07011473178863525 0.05130849778652191
0.003102224553003907 -0.07197792083024979 0.052548043429851525
0.0031277663074433804 -0.07375175505876541 0.05378273874521256
0.0031484069768339396 -0.07544060051441193 0.055006328970193856
0.0031648471485823393 -0.07705114781856537 0.05620927736163139
0.0031782679725438356 -0.07859089970588684 0.057380873709917075
0.0031899327877908945 -0.08006614446640015 0.058512117713689804
0.0032009012065827847 -0.08148069679737091 0.059597570449113846
0.003211877541616559 -0.08283540606498718 0.06063602864742279
0.003223159583285451 -0.0841282308101654 0.06163038685917855
0.003234656061977148 -0.0853547602891922 0.06258697062730789
0.0032459525391459465 -0.08650889247655869 0.06351447105407715
0.0032564047724008556 -0.08758419752120972 0.06442207843065262
0.0032652423251420264 -0.08857711404561996 0.065314881503582
0.003271671943366527 -0.08948959410190582 0.06619009375572205
0.0032749734818935394 -0.09032934904098511 0.0670366957783699
0.0032745779026299715 -0.09110846370458603 0.0678374394774437
0.0032701271120458846 -0.09184154868125916 0.06857144832611084
0.0032615121454000473 -0.09254628419876099 0.06921347230672836
0.0032488894648849964 -0.09324416518211365 0.06973282247781754
0.003232676535844803 -0.09395704418420792 0.07009828835725784
0.0032135276123881336 -0.09470169246196747 0.07028590142726898
0.003192296950146556 -0.09548481553792953 0.07028611749410629
0.0031699857208877806 -0.09629980474710464 0.07010834664106369
0.003147683572024107 -0.09712608903646469 0.06978196650743484
0.0031265048310160637 -0.09793085604906082 0.0693538561463356

CELLS 50 150
2 0 1
2 1 2
2 2 3
2 3 4
2 4 5
2 5 6
2 6 7
2 7 8
2 8 9
2 9 10
2 10 11
2 11 12
2 12 13
2 13 14
2 14 15
2 15 16
2 16 17
2 17 18
2 18 19
2 19 20
2 20 21
2 21 22
2 22 23
2 23 24
2 24 25
2 25 26
2 26 27
2 27 28
2 28 29
2 29 30
2 30 31
2 31 32
2 32 33
2 33 34
2 34 35
2 35 36
2 36 37
2 37 38
2 38 39
2 39 40
2 40 41
2 41 42
2 42 43
2 43 44
2 44 45
2 45 46
2 46 47
2 47 48
2 48 49
2 49 50

CELL_TYPES 50
4
4
4
4
4
4
4
4
4
4
4
4
4
4
4
4
4
4
4
4
4
4
4
4
4
4
4
4
4
4
4
4
4
4
4
4
4
4
4
4
4
4
4
4
4
4
4
4
4
4

POINT_DATA 51

SCALARS zone float
LOOKUP_TABLE default
1.0
1.0
1.0
1.0
1.0
1.0
1.0
1.0
1.0
1.0
1.0
1.0
1.0
1.0
1.0
1.0
1.0
1.0
1.0
1.0
1.0
1.0
1.0
1.0
1.0
1.0
1.0
1.0
1.0
1.0
1.0
1.0
1.0
1.0
1.0
1.0
1.0
1.0
1.0
1.0
1.0
1.0
1.0
1.0
1.0
1.0
1.0
1.0
1.0
1.0
1.0

VECTORS normals float
-0.00011546154564712197 -0.0017058929661288857 0.0011698143789544702
-0.00022074757725931704 -0.003278647316619754 0.0024635361041873693
-0.0002789688587654382 -0.0030833177734166384 0.0026100273244082928
-0.00040420211735181516 -0.00296397740021348 0.0026479947846382856
-0.00044531151070259506 -0.002907834481447935 0.002595706842839718
-0.0003278949297964573 -0.0030078981071710587 0.002320332685485482
-9.220571519108489e-5 -0.0031413461547344923 0.001997280865907669
0.00013812060933560133 -0.0031099149491637945 0.001909700920805335
0.0002748481638263911 -0.003053348045796156 0.0018580186879262326
0.0003148686664644629 -0.003042044350877404 0.0017416938208043575
0.00028992604347877204 -0.0029617538675665855 0.0017238921718671916
0.00022987906413618475 -0.002864621812477708 0.0017301426269114017
0.00015821750275790691 -0.0028138975612819195 0.0016701162094250321
9.200429485645145e-5 -0.002784046111628413 0.0015802800189703703
4.130187880946323e-5 -0.002733839675784111 0.0015195137821137905
9.696207598608453e-6 -0.0026505400892347097 0.001506009604781866
-4.217552486807108e-6 -0.0025469178799539804 0.0015215291641652584
-5.062076070316834e-6 -0.0024481050204485655 0.0015301803359761834
1.7121039945777738e-6 -0.0023722827900201082 0.0015059973811730742
1.1616368283284828e-5 -0.00231922953389585 0.001449297065846622
2.149965257558506e-5 -0.0022749050986021757 0.001380130648612976
2.9418395570246506e-5 -0.0022241126280277967 0.0013202013215050101
3.442417073529214e-5 -0.0021599538158625364 0.0012793613132089376
3.63165709131863e-5 -0.002083292230963707 0.0012563772033900023
3.5412773286225274e-5 -0.001998078776523471 0.0012456063413992524
3.2357384043280035e-5 -0.0019085340900346635 0.001241020974703133
2.7964591936324723e-5 -0.0018185109365731478 0.0012371190823614597
2.309120463905856e-5 -0.0017313407734036448 0.0012291427701711655
1.854042238846887e-5 -0.0016496990574523807 0.001213270821608603
1.493051149736857e-5 -0.0015751487808302045 0.0011872712057083845
1.2542826880235225e-5 -0.0015074968105182052 0.0011514199431985617
1.1316546078887768e-5 -0.0014448995934799314 0.0011083497665822506
1.0972400559694506e-5 -0.0013846303336322308 0.0010619547683745623
1.1129222002637107e-5 -0.001323767239227891 0.001016407972201705
1.1389166502340231e-5 -0.001259676762856543 0.0009754704078659415
1.1396474292268977e-5 -0.0011903290869668126 0.0009420408750884235
1.0874458894249983e-5 -0.0011147200129926205 0.0009175534942187369
9.644884812587406e-6 -0.001034112530760467 0.000900204642675817
7.633578206878155e-6 -0.000952698290348053 0.0008840078371576965
4.865619757765671e-6 -0.0008761168573983014 0.0008609091746620833
1.4529367717841524e-6 -0.0008094349759630859 0.0008236724534071982
-2.4232347186625702e-6 -0.0007560994708910584 0.0007673751097172499
-6.532860879815417e-6 -0.0007189107709564269 0.0006880178116261959
-1.0618759006320033e-5 -0.0007013085996732116 0.0005806879489682615
-1.4417873899219556e-5 -0.0007053778390400112 0.00044240814168006176
-1.7680962628219277e-5 -0.0007287655025720596 0.0002765388635452837
-2.018977284024004e-5 -0.0007638851529918611 9.391444473294541e-5
-2.1771005776827224e-5 -0.000799052941147238 -8.877865184331313e-5
-2.2306650862446986e-5 -0.0008206389029510319 -0.00025207496946677566
-2.1740446754847653e-5 -0.000815527222584933 -0.000377243006369099
-1.058942416420905e-5 -0.0004023832443635911 -0.00021405465668067336

CELL_DATA 50

VECTORS liftinglineloading               float
0.1262783706188202 -0.054370887577533715 -0.0941731408238411
0.18225125968456268 -0.08910449594259262 -0.15433351695537567
-0.07041595131158829 -0.027505107223987583 -0.04764024540781975
0.13596078753471375 -0.03638950735330582 -0.0630284771323204
0.1608370989561081 -0.057686563581228256 -0.09991606324911118
-0.4269400238990783 -0.18205875158309937 -0.3153350055217743
-1.5456068515777588 -0.4210889935493469 -0.7293475270271301
-3.051340103149414 -0.6954402923583984 -1.2045379877090454
-4.925650596618652 -0.9834164381027223 -1.7033271789550783
-6.943963050842284 -1.2713062763214111 -2.2019670009613037
-8.985457420349121 -1.531943440437317 -2.6534039974212646
-10.754751205444336 -1.7422283887863157 -3.0176281929016113
-11.892009735107422 -1.8532428741455078 -3.2099108695983887
-12.7648344039917 -1.9246652126312258 -3.333617925643921
-13.429038047790527 -1.9435124397277832 -3.366262435913086
-13.896085739135742 -1.9410330057144165 -3.3619678020477295
-13.936788558959961 -1.8584820032119749 -3.2189853191375732
-13.813648223876951 -1.8074381351470947 -3.1305747032165527
-14.352437019348145 -1.7976402044296265 -3.1136040687561035
-14.188334465026855 -1.7279224395751953 -2.992849588394165
-14.080802917480469 -1.6822813749313354 -2.9137966632843018
-14.131010055541992 -1.6126455068588257 -2.7931838035583496
-14.554642677307129 -1.6596171855926514 -2.8745412826538086
-14.259187698364258 -1.5911041498184204 -2.755873203277588
-15.065618515014648 -1.60749351978302 -2.7842605113983154
-16.720279693603516 -1.5880208015441895 -2.750532627105713
-17.23721694946289 -1.563245177268982 -2.707620143890381
-18.916379928588867 -1.670167803764343 -2.892815351486206
-20.32478904724121 -1.682374835014343 -2.913958787918091
-21.43574333190918 -1.6611219644546509 -2.877147674560547
-22.54294204711914 -1.5857276916503906 -2.746561050415039
-23.41132926940918 -1.4913610219955444 -2.583112955093384
-24.043622970581055 -1.458025336265564 -2.525373935699463
-24.436599731445312 -1.3436537981033325 -2.3272767066955566
-24.509464263916016 -1.2828341722488403 -2.2219340801239014
-24.98665428161621 -1.1885738372802734 -2.0586702823638916
-24.518590927124023 -1.0701756477355957 -1.8535985946655276
-23.78923225402832 -0.9967971444129944 -1.7265033721923826
-22.73546028137207 -0.9466336369514465 -1.6396175622940066
-21.682777404785156 -0.867129623889923 -1.5019125938415527
-20.645282745361328 -0.8192675709724426 -1.4190131425857544
-18.59178352355957 -0.7901681661605835 -1.3686113357543945
-15.523356437683105 -0.819337010383606 -1.4191334247589111
-13.006608963012697 -0.7989047765731812 -1.3837436437606812
-10.489236831665039 -0.9015058279037477 -1.561453938484192
-8.869511604309082 -0.9284599423408509 -1.6081398725509644
-7.02242088317871 -0.9142419695854187 -1.5835134983062744
-5.380836009979248 -0.9063800573348999 -1.5698962211608887
-3.5486693382263184 -0.8843531012535096 -1.5317445993423462
-1.91178822517395 -0.8574984073638916 -1.485230803489685