# vtk DataFile Version 4.0
 
ASCII
DATASET UNSTRUCTURED_GRID
POINTS 51 float
0.0032294827979058027 -0.0019673160277307034 -0.0073565137572586545
0.0029985597357153893 -0.0005145004251971841 -0.011229945346713066
0.0027879877015948296 0.0005780527135357261 -0.015153644606471062
0.0024406220763921738 0.0015428115148097277 -0.019043000414967537
0.001979583641514182 0.0023962941486388445 -0.022892000153660774
0.0015499991131946445 0.0033290560822933912 -0.02663128823041916
0.0013237936655059457 0.004662369377911091 -0.030143929645419117
0.00136558769736439 0.0061843497678637505 -0.03350704535841942
0.0016000348841771481 0.007566636893898249 -0.03684014827013016
0.0019152839668095112 0.009055230766534805 -0.040053702890872955
0.002229772275313735 0.010552441701292992 -0.04318326339125633
0.002495136111974716 0.011929916217923164 -0.046275544911623
0.002689530374482274 0.013260825537145136 -0.049303922802209854
0.00281157111749053 0.014624057337641716 -0.05223967507481576
0.0028735389932990074 0.016009116545319557 -0.055086627602577216
0.00289417477324605 0.01735980436205864 -0.057865232229232795
0.0028929314576089382 0.01862388476729393 -0.06059450283646583
0.0028857397846877575 0.019787002354860306 -0.0632796660065651
0.002882807282730937 0.020879274234175682 -0.06590975821018219
0.002889164024963975 0.02194591425359249 -0.06846831738948822
0.002906039822846651 0.0230163112282753 -0.0709446519613266
0.0029321631882339716 0.02408968098461628 -0.0733390524983406
0.002964876824989915 0.02514561079442501 -0.07565894722938538
0.003001011675223708 0.026160718873143196 -0.077912837266922
0.003037509974092245 0.027117419987916946 -0.08010713011026382
0.0030718371272087097 0.028005277737975117 -0.08224561810493469
0.003102224553003907 0.028820538893342018 -0.08432967960834503
0.0031277663074433804 0.029565386474132538 -0.08635850250720978
0.0031484069768339396 0.03024698793888092 -0.0883295014500618
0.0031648471485823393 0.030876288190484043 -0.09023866802453995
0.0031782679725438356 0.03146557882428169 -0.09208154678344727
0.0031899327877908945 0.03202517330646515 -0.0938543751835823
0.0032009012065827847 0.03256131708621979 -0.095554880797863
0.003211877541616559 0.03307539224624634 -0.09718256443738937
0.003223159583285451 0.03356407582759857 -0.09873863309621811
0.003234656061977148 0.034020114690065384 -0.10022572427988052
0.0032459525391459465 0.03443353250622749 -0.10164746642112733
0.0032564047724008556 0.03479379042983055 -0.10300770401954651
0.0032652423251420264 0.03509505093097687 -0.1043085604906082
0.003271671943366527 0.035340506583452225 -0.10554887354373933
0.0032749734818935394 0.0355428010225296 -0.10672403126955032
0.0032745779026299715 0.035721730440855026 -0.10782684385776521
0.0032701271120458846 0.03590122610330582 -0.10884858667850493
0.0032615121454000473 0.03611026331782341 -0.1097787246108055
0.0032488894648849964 0.03638404235243797 -0.11060444265604019
0.003232676535844803 0.03675837442278862 -0.11131270229816438
0.0032135276123881336 0.037260752171278 -0.11189350485801697
0.003192296950146556 0.037902116775512695 -0.11234285682439803
0.0031699857208877806 0.03867168352007866 -0.11266469210386278
0.003147683572024107 0.03953574225306511 -0.11287127435207368
0.0031265048310160637 0.04044052213430405 -0.11298218369483946

CELLS 50 150
2 0 1
2 1 2
2 2 3
2 3 4
2 4 5
2 5 6
2 6 7
2 7 8
2 8 9
2 9 10
2 10 11
2 11 12
2 12 13
2 13 14
2 14 15
2 15 16
2 16 17
2 17 18
2 18 19
2 19 20
2 20 21
2 21 22
2 22 23
2 23 24
2 24 25
2 25 26
2 26 27
2 27 28
2 28 29
2 29 30
2 30 31
2 31 32
2 32 33
2 33 34
2 34 35
2 35 36
2 36 37
2 37 38
2 38 39
2 39 40
2 40 41
2 41 42
2 42 43
2 43 44
2 44 45
2 45 46
2 46 47
2 47 48
2 48 49
2 49 50

CELL_TYPES 50
4
4
4
4
4
4
4
4
4
4
4
4
4
4
4
4
4
4
4
4
4
4
4
4
4
4
4
4
4
4
4
4
4
4
4
4
4
4
4
4
4
4
4
4
4
4
4
4
4
4

POINT_DATA 51

SCALARS zone float
LOOKUP_TABLE default
1.0
1.0
1.0
1.0
1.0
1.0
1.0
1.0
1.0
1.0
1.0
1.0
1.0
1.0
1.0
1.0
1.0
1.0
1.0
1.0
1.0
1.0
1.0
1.0
1.0
1.0
1.0
1.0
1.0
1.0
1.0
1.0
1.0
1.0
1.0
1.0
1.0
1.0
1.0
1.0
1.0
1.0
1.0
1.0
1.0
1.0
1.0
1.0
1.0
1.0
1.0

VECTORS normals float
-0.00011546154564712197 0.0007264077430590987 -0.0019367157947272062
-0.00022074757725931704 0.0012726843124255538 -0.003898565424606204
-0.0002789688587654382 0.0010286560282111168 -0.003906527534127235
-0.00040420211735181516 0.0009091206593438983 -0.0038691780064255
-0.00044531151070259506 0.0008931222837418318 -0.003794143907725811
-0.0003278949297964573 0.001133037731051445 -0.0036259647458791733
-9.220571519108489e-5 0.0014276469592005014 -0.0034378787968307734
0.00013812060933560133 0.001452133757993579 -0.0033481093123555183
0.0002748481638263911 0.0014354404993355274 -0.003273328300565481
0.0003148686664644629 0.0014929022872820497 -0.0031715568620711565
0.00028992604347877204 0.0014373427256941795 -0.0031109219416975975
0.00022987906413618475 0.0013541918015107512 -0.003060329472646117
0.00015821750275790691 0.0013470705598592758 -0.0029820643831044436
9.200429485645145e-5 0.0013741456205025315 -0.002891352865844965
4.130187880946323e-5 0.0013678731629624963 -0.0028127788100391626
9.696207598608453e-6 0.001307383761741221 -0.002753938315436244
-4.217552486807108e-6 0.001213599811308086 -0.0027072159573435783
-5.062076070316834e-6 0.0011276948498561978 -0.002657625824213028
1.7121039945777738e-6 0.001079455716535449 -0.002594326389953494
1.1616368283284828e-5 0.0010685189627110958 -0.0025174501352012157
2.149965257558506e-5 0.001071882783435285 -0.0024353687185794115
2.9418395570246506e-5 0.0010646500159054995 -0.0023571441415697336
3.442417073529214e-5 0.001035519177094102 -0.0022868900559842587
3.63165709131863e-5 0.0009859047131612897 -0.0022240912076085806
3.5412773286225274e-5 0.0009222797816619277 -0.0021663918159902096
3.2357384043280035e-5 0.0008515592198818921 -0.0021112749818712473
2.7964591936324723e-5 0.0007800546009093523 -0.0020564435981214046
2.309120463905856e-5 0.0007132239989005029 -0.001999910920858383
1.854042238846887e-5 0.0006554507999680936 -0.0019400817109271882
1.493051149736857e-5 0.0006092955591157079 -0.0018760239472612739
1.2542826880235225e-5 0.0005744417430832982 -0.0018078526481986046
1.1316546078887768e-5 0.0005478691309690475 -0.001736667356453836
1.0972400559694506e-5 0.0005251105758361518 -0.0016640938119962811
1.1129222002637107e-5 0.0005013789632357657 -0.0015918744029477236
1.1389166502340231e-5 0.0004723599995486438 -0.0015215794555842876
1.1396474292268977e-5 0.0004347280482761562 -0.001454419456422329
1.0874458894249983e-5 0.00038683813181705773 -0.00139099289663136
9.644884812587406e-6 0.00033075918327085674 -0.001330547034740448
7.633578206878155e-6 0.0002733586588874459 -0.001270582084544003
4.865619757765671e-6 0.0002238757006125525 -0.001207735505886376
1.4529367717841524e-6 0.0001906112302094698 -0.0011389857390895486
-2.4232347186625702e-6 0.0001792121329344809 -0.0010622777044773102
-6.532860879815417e-6 0.0001942663948284462 -0.0009759414824657142
-1.0618759006320033e-5 0.00024140944879036397 -0.00087792583508417
-1.4417873899219556e-5 0.0003240568330511451 -0.0007669876795262098
-1.7680962628219277e-5 0.00043835357064381236 -0.0006445300532504916
-2.018977284024004e-5 0.000571870943531394 -0.0005150767392478883
-2.1771005776827224e-5 0.0007054671877995133 -0.00038559469976462424
-2.2306650862446986e-5 0.0008168123313225805 -0.0002642114122863859
-2.1740446754847653e-5 0.0008844184922054409 -0.00015874780365265906
-1.058942416420905e-5 0.00045238976599648595 -5.545424937736243e-5

CELL_DATA 50

VECTORS liftinglineloading               float
0.1266927868127823 0.09877114742994308 0.04605774208903313
0.18134024739265442 0.16104231774806976 0.0750952661037445
-0.07089395821094513 0.05111665278673171 0.023836087435483932
0.14103840291500092 0.0671219453215599 0.03129947558045387
0.1398400068283081 0.11387185752391815 0.053099319338798516
-0.5036558508872986 0.35932332277297974 0.16755521297454834
-1.6054342985153198 0.7837035059928894 0.36544695496559143
-3.1693198680877686 1.291541337966919 0.602255642414093
-5.022086143493652 1.805568218231201 0.8419502973556519
-7.077790737152099 2.3333323001861572 1.0880507230758667
-9.152624130249023 2.810678720474243 1.3106410503387451
-10.948751449584961 3.194162368774414 1.4894623756408691
-12.108396530151367 3.396634340286255 1.583876609802246
-13.037456512451172 3.537393093109131 1.6495134830474851
-13.690268516540527 3.570464611053467 1.664934992790222
-14.171003341674803 3.5657701492309566 1.6627459526062012
-14.2527379989624 3.422185182571411 1.595791220664978
-14.180546760559082 3.3330399990081783 1.5542221069335938
-14.79928207397461 3.321675539016723 1.5489226579666138
-14.69521236419678 3.197922706604004 1.4912158250808716
-14.55457878112793 3.1095924377441406 1.4500267505645752
-14.738331794738771 2.9914655685424805 1.3949432373046875
-15.185389518737793 3.0749270915985107 1.4338619709014893
-15.047203063964842 2.958860158920288 1.3797391653060913
-16.034326553344727 2.9933817386627197 1.3958368301391602
-17.44719123840332 2.9324259757995605 1.3674126863479614
-18.097652435302734 2.892652750015259 1.3488661050796509
-19.86342430114746 3.0782289505004883 1.4354017972946167
-21.452735900878906 3.0970611572265625 1.444183349609375
-22.739299774169922 3.0502207279205322 1.4223413467407227
-23.9062557220459 2.9066431522369385 1.3553900718688965
-24.843019485473633 2.7162814140319824 1.2666229009628296
-25.833629608154297 2.661339282989502 1.2410029172897339
-26.140729904174805 2.415567398071289 1.1263976097106934
-26.14462661743164 2.3009369373321533 1.0729445219039917
-25.87117576599121 2.1485788822174072 1.0018987655639648
-25.35258674621582 1.9379556179046629 0.9036835432052613
-24.33333396911621 1.810041308403015 0.8440361022949219
-23.281524658203125 1.7188873291015625 0.8015303015708923
-22.21270179748535 1.5711357593536377 0.7326326370239258
-21.160722732543945 1.4859391450881958 0.6929047703742981
-19.059812545776367 1.435735821723938 0.6694945693016052
-15.936098098754883 1.4954482316970825 0.6973389983177185
-13.35926818847656 1.4604240655899048 0.681006908416748
-10.818642616271973 1.6556277275085447 0.7720319032669067
-9.169419288635254 1.705431342124939 0.7952556610107422
-7.274561882019042 1.6809476613998415 0.7838388085365295
-5.589873790740967 1.6663302183151247 0.7770225405693054
-3.702588319778443 1.6268143653869631 0.7585960030555725
-2.0060501098632812 1.5784109830856323 0.7360251545906067