# vtk DataFile Version 4.0
 
ASCII
DATASET UNSTRUCTURED_GRID
POINTS 51 float
0.0032294827979058027 0.006235727109014988 0.004370850045233965
0.0029985597357153893 0.007612599991261958 0.00827192235738039
0.0027879877015948296 0.009297761134803295 0.011979930102825165
0.0024406220763921738 0.011058742180466652 0.015579485334455965
0.001979583641514182 0.012879027053713799 0.019076598808169365
0.0015499991131946445 0.014568056911230087 0.022540627047419548
0.0013237936655059457 0.015804562717676163 0.026088504120707512
0.00136558769736439 0.016800427809357643 0.029643109068274495
0.0016000348841771481 0.017884010449051857 0.0330849327147007
0.0019152839668095112 0.01880931481719017 0.03650350496172905
0.002229772275313735 0.019674027338624 0.03986327722668648
0.002495136111974716 0.020606501027941704 0.04311752691864967
0.002689530374482274 0.02153356932103634 0.04629288986325264
0.00281157111749053 0.02237633801996708 0.04941807687282562
0.0028735389932990074 0.02314530685544014 0.0524892657995224
0.00289417477324605 0.023896673694252968 0.05548600852489472
0.0028929314576089382 0.024682672694325447 0.05838928371667861
0.0028857397846877575 0.025517661124467846 0.06119387596845627
0.002882807282730937 0.02637152187526226 0.06391073763370514
0.002889164024963975 0.027199039235711098 0.06655633449554443
0.002906039822846651 0.027970828115940094 0.06914135813713074
0.0029321631882339716 0.028687670826911926 0.07166552543640137
0.002964876824989915 0.029369976371526718 0.0741214007139206
0.003001011675223708 0.030041132122278214 0.07650048285722733
0.003037509974092245 0.030718719586730003 0.07879636436700821
0.0030718371272087097 0.03141317516565323 0.08100524544715881
0.003102224553003907 0.03212825581431389 0.0831257626414299
0.0031277663074433804 0.032861776649951935 0.08515872061252594
0.0031484069768339396 0.03360657021403313 0.08710671216249466
0.0031648471485823393 0.034351687878370285 0.08897373080253601
0.0031782679725438356 0.03508484736084938 0.09076423943042755
0.0031899327877908945 0.03579572215676308 0.09248200803995132
0.0032009012065827847 0.03647807613015175 0.0941292941570282
0.003211877541616559 0.03713052719831467 0.09570661187171936
0.003223159583285451 0.03775639459490776 0.09721274673938751
0.003234656061977148 0.038362931460142136 0.09864506125450134
0.0032459525391459465 0.03896011784672737 0.09999992698431015
0.0032564047724008556 0.03955848887562752 0.10127349942922592
0.0032652423251420264 0.04016388580203056 0.10246365517377853
0.003271671943366527 0.04077310860157013 0.1035715639591217
0.0032749734818935394 0.04137352108955383 0.10460182279348372
0.0032745779026299715 0.04194532707333565 0.10556163638830185
0.0032701271120458846 0.042464591562747955 0.10645972192287446
0.0032615121454000473 0.04290233924984932 0.1073066145181656
0.0032488894648849964 0.04322336986660957 0.10811512917280196
0.003232676535844803 0.0433918759226799 0.10889830440282822
0.0032135276123881336 0.043380364775657654 0.10966614633798599
0.003192296950146556 0.04317788779735565 0.11042263358831407
0.0031699857208877806 0.04279523715376854 0.11116383969783783
0.003147683572024107 0.0422661229968071 0.11187750101089479
0.0031265048310160637 0.04164431244134903 0.11254404485225677

CELLS 50 150
2 0 1
2 1 2
2 2 3
2 3 4
2 4 5
2 5 6
2 6 7
2 7 8
2 8 9
2 9 10
2 10 11
2 11 12
2 12 13
2 13 14
2 14 15
2 15 16
2 16 17
2 17 18
2 18 19
2 19 20
2 20 21
2 21 22
2 22 23
2 23 24
2 24 25
2 25 26
2 26 27
2 27 28
2 28 29
2 29 30
2 30 31
2 31 32
2 32 33
2 33 34
2 34 35
2 35 36
2 36 37
2 37 38
2 38 39
2 39 40
2 40 41
2 41 42
2 42 43
2 43 44
2 44 45
2 45 46
2 46 47
2 47 48
2 48 49
2 49 50

CELL_TYPES 50
4
4
4
4
4
4
4
4
4
4
4
4
4
4
4
4
4
4
4
4
4
4
4
4
4
4
4
4
4
4
4
4
4
4
4
4
4
4
4
4
4
4
4
4
4
4
4
4
4
4

POINT_DATA 51

SCALARS zone float
LOOKUP_TABLE default
1.0
1.0
1.0
1.0
1.0
1.0
1.0
1.0
1.0
1.0
1.0
1.0
1.0
1.0
1.0
1.0
1.0
1.0
1.0
1.0
1.0
1.0
1.0
1.0
1.0
1.0
1.0
1.0
1.0
1.0
1.0
1.0
1.0
1.0
1.0
1.0
1.0
1.0
1.0
1.0
1.0
1.0
1.0
1.0
1.0
1.0
1.0
1.0
1.0
1.0
1.0

VECTORS normals float
-0.00011546154564712197 0.0006884363247081637 0.0019505362724885342
-0.00022074757725931704 0.00153101678006351 0.0038045402616262436
-0.0002789688587654382 0.00172307132743299 0.003653781022876501
-0.00040420211735181516 0.00179063284303993 0.0035483336541801687
-0.00044531151070259506 0.0017546573653817177 0.0034805708564817905
-0.0003278949297964573 0.0014627680648118258 0.0035059528890997176
-9.220571519108489e-5 0.0011161848669871688 0.0035512417089194055
0.00013812060933560133 0.0010397242149338126 0.003498214296996594
0.0002748481638263911 0.0010044437367469072 0.0034301981795579195
0.0003148686664644629 0.0008950080373324454 0.0033891727216541767
0.00028992604347877204 0.0008985936874523759 0.0033070105127990246
0.00022987906413618475 0.0009297707001678646 0.0032148060854524374
0.00015821750275790691 0.0008849181467667221 0.0031502740457654
9.200429485645145e-5 0.0008058691746555269 0.003098188666626811
4.130187880946323e-5 0.0007601677789352834 0.0030339655932039022
9.696207598608453e-6 0.00076868332689628 0.0029500091914087534
-4.217552486807108e-6 0.0008104934240691364 0.0028539346531033516
-5.062076070316834e-6 0.0008444245322607457 0.002760727657005191
1.7121039945777738e-6 0.0008406897541135548 0.0026812299620360136
1.1616368283284828e-5 0.0007996527128852903 0.0026153093203902245
2.149965257558506e-5 0.0007443150389008224 0.0025545936077833176
2.9418395570246506e-5 0.0006995738949626684 0.0024900210555642843
3.442417073529214e-5 0.0006767308805137873 0.002417478244751692
3.63165709131863e-5 0.0006743714911863208 0.0023374799638986588
3.5412773286225274e-5 0.0006860225112177432 0.0022523824591189623
3.2357384043280035e-5 0.0007047692197375 0.0021647021640092134
2.7964591936324723e-5 0.0007242999854497612 0.0020767366513609886
2.309120463905856e-5 0.0007391567341983318 0.001990472199395299
1.854042238846887e-5 0.0007449560798704624 0.0019075045129284263
1.493051149736857e-5 0.0007391374092549086 0.0018287653801962731
1.2542826880235225e-5 0.0007220174302347004 0.0017541395500302313
1.1316546078887768e-5 0.0006966161308810115 0.0016825278289616108
1.0972400559694506e-5 0.0006674008327536285 0.0016123043606057763
1.1129222002637107e-5 0.0006391585920937359 0.0015417267568409443
1.1389166502340231e-5 0.0006162037025205791 0.0014692246913909912
1.1396474292268977e-5 0.000601861800532788 0.0013935876777395606
1.0874458894249983e-5 0.0005977778346277773 0.0013142172247171402
9.644884812587406e-6 0.0006018829299136996 0.001231866073794663
7.633578206878155e-6 0.0006073095719330013 0.0011490340111777186
4.865619757765671e-6 0.0006048186914995313 0.0010690835770219564
1.4529367717841524e-6 0.00058610929409042 0.0009950363310053945
-2.4232347186625702e-6 0.0005455345381051302 0.0009289472945965827
-6.532860879815417e-6 0.0004785063792951405 0.0008724865620024501
-1.0618759006320033e-5 0.00037938947207294405 0.000827705196570605
-1.4417873899219556e-5 0.000244768219999969 0.0007958463393151759
-1.7680962628219277e-5 7.849762914702296e-5 0.000775506894569844
-2.018977284024004e-5 -0.00010699364065658301 0.0007621632539667189
-2.1771005776827224e-5 -0.00029256369452923536 0.0007488482515327632
-2.2306650862446986e-5 -0.00045588269131258135 0.0007274345261976123
-2.1740446754847653e-5 -0.0005754627636633813 0.0006901011220179498
-1.058942416420905e-5 -0.0003109053650405258 0.0003332709602545947

CELL_DATA 50

VECTORS liftinglineloading               float
0.19623491168022156 -0.14278650283813477 0.03825952857732773
0.28764045238494873 -0.24353669583797455 0.06525546312332153
-0.2827555537223816 -0.1772993505001068 0.04750721901655197
0.056409742683172226 -0.053689856082201004 0.014386153779923916
0.31454890966415405 -0.04988886043429375 0.01336767990142107
-0.21641843020915985 -0.2725072205066681 0.07301808893680573
-1.3343873023986816 -0.7454736828804016 0.19974906742572784
-2.981638193130493 -1.3363205194473267 0.35806599259376526
-4.967772960662842 -1.920727014541626 0.5146572589874268
-7.158510684967041 -2.5062286853790283 0.6715419292449951
-9.372908592224121 -3.0323028564453125 0.8125030994415283
-11.493480682373047 -3.479182243347168 0.932244062423706
-12.788697242736816 -3.697446584701538 0.9907278418540953
-13.803713798522947 -3.8554780483245845 1.0330722332000732
-14.554568290710451 -3.908886671066284 1.0473829507827759
-15.088949203491211 -3.9062659740448 1.0466808080673218
-15.170138359069826 -3.7696871757507324 1.010084629058838
-15.050066947937012 -3.6586375236511226 0.9803289175033569
-16.1184139251709 -3.6907129287719727 0.9889235496520996
-16.180665969848633 -3.5642385482788086 0.9550348520278932
-16.252294540405273 -3.4788525104522705 0.9321557283401489
-16.344255447387695 -3.3298768997192383 0.8922377824783324
-16.86730194091797 -3.4014909267425537 0.9114267826080322
-16.80199432373047 -3.2729337215423584 0.8769799470901489
-17.793909072875977 -3.2885468006134033 0.8811634778976439
-19.09137535095215 -3.2044975757598877 0.8586425185203552
-19.70779800415039 -3.1557116508483887 0.8455703854560852
-21.157081604003906 -3.3103563785552974 0.8870073556900024
-22.509145736694336 -3.3093178272247314 0.8867290616035461
-23.459938049316406 -3.241746664047241 0.8686234354972839
-24.18875503540039 -3.082045793533325 0.8258317112922668
-24.724897384643555 -2.876277446746826 0.770696222782135
-25.04337501525879 -2.8153393268585205 0.7543678879737854
-25.143503189086914 -2.5761911869049072 0.6902883648872375
-24.969924926757812 -2.463320255279541 0.6600446701049805
-24.580663681030273 -2.30947208404541 0.6188211441040039
-23.985910415649414 -2.0807929039001465 0.5575467944145203
-23.012008666992188 -1.9463875293731692 0.5215329527854919
-21.95730972290039 -1.84748911857605 0.4950332045555115
-20.93107795715332 -1.6991159915924072 0.455276757478714
-19.91106605529785 -1.6016221046447754 0.4291533529758454
-17.892845153808594 -1.5397199392318726 0.4125667214393615
-14.930196762084961 -1.5816800594329834 0.4238098859786988
-12.482674598693848 -1.5370360612869263 0.41184756159782415
-10.047035217285156 -1.7177324295043945 0.4602650105953217
-8.448548316955566 -1.7667117118835451 0.4733889698982239
-6.6628098487854 -1.734999656677246 0.46489176154136663
-5.080491065979004 -1.7193516492843628 0.46069890260696406
-3.337003707885742 -1.6752840280532837 0.44889101386070246
-1.7856265306472778 -1.6217103004455566 0.43453598022460943