# vtk DataFile Version 4.0
 
ASCII
DATASET UNSTRUCTURED_GRID
POINTS 51 float
0.0032294827979058027 -0.0013260033447295427 0.007498689461499453
0.0029985597357153893 -0.004279684275388718 0.010395224206149578
0.0027879877015948296 -0.0069281007163226604 0.01348957046866417
0.0024406220763921738 -0.009446182288229465 0.016606800258159637
0.001979583641514182 -0.011846357025206089 0.01973448134958744
0.0015499991131946445 -0.014272018335759641 0.02272922359406948
0.0013237936655059457 -0.01696491800248623 0.025349276140332222
0.00136558769736439 -0.019765613600611687 0.027754077687859535
0.0016000348841771481 -0.022427022457122803 0.030190715566277504
0.0019152839668095112 -0.025134252384305 0.032474078238010406
0.002229772275313735 -0.02781379595398903 0.03467767313122749
0.002495136111974716 -0.030369067564606667 0.036898087710142136
0.002689530374482274 -0.03285512700676918 0.039080262184143066
0.00281157111749053 -0.03533133864402771 0.041164830327034
0.0028735389932990074 -0.03778980299830437 0.043159693479537964
0.00289417477324605 -0.04018823057413101 0.04510714113712311
0.0028929314576089382 -0.04248731583356857 0.0470464788377285
0.0028857397846877575 -0.04467625543475151 0.048988502472639084
0.002882807282730937 -0.04677771404385567 0.05091056227684021
0.002889164024963975 -0.048825714737176895 0.052778623998165124
0.002906039822846651 -0.050842370837926865 0.054570581763982766
0.0029321631882339716 -0.05282709002494812 0.05628701671957969
0.002964876824989915 -0.05476451665163041 0.05794329568743706
0.003001011675223708 -0.05663704872131347 0.05955701321363449
0.003037509974092245 -0.05843146517872811 0.06114139407873153
0.0030718371272087097 -0.06013990193605423 0.06270430237054825
0.003102224553003907 -0.06175953894853592 0.06424855440855026
0.0031277663074433804 -0.0632920190691948 0.06577251106500626
0.0031484069768339396 -0.06474273651838303 0.06727078557014465
0.0031648471485823393 -0.06611993163824081 0.06873512268066406
0.0031782679725438356 -0.06743284314870834 0.0701562911272049
0.0031899327877908945 -0.06868923455476761 0.07152652740478516
0.0032009012065827847 -0.06989381462335587 0.07284112274646759
0.003211877541616559 -0.07104761153459549 0.07409904897212982
0.003223159583285451 -0.07214812934398651 0.07530280202627182
0.003234656061977148 -0.07318991422653198 0.07645782828330994
0.0032459525391459465 -0.0741654559969902 0.07757165282964706
0.0032564047724008556 -0.07506681978702545 0.07865219563245773
0.0032652423251420264 -0.07588961720466614 0.07970385253429413
0.003271671943366527 -0.07663625478744507 0.08072421699762344
0.0032749734818935394 -0.07731623947620392 0.0817037895321846
0.0032745779026299715 -0.07794447243213654 0.08262765407562256
0.0032701271120458846 -0.07853896170854568 0.08347781002521515
0.0032615121454000473 -0.07912150770425797 0.08423245698213577
0.0032488894648849964 -0.07971859723329544 0.08486510813236237
0.003232676535844803 -0.08035718649625778 0.08534880727529526
0.0032135276123881336 -0.08105794340372086 0.08566287904977798
0.003192296950146556 -0.08182912319898605 0.08579907566308975
0.0031699857208877806 -0.08266260474920273 0.0857655256986618
0.003147683572024107 -0.08353301137685776 0.08558759093284607
0.0031265048310160637 -0.08439989387989044 0.08530573546886444

CELLS 50 150
2 0 1
2 1 2
2 2 3
2 3 4
2 4 5
2 5 6
2 6 7
2 7 8
2 8 9
2 9 10
2 10 11
2 11 12
2 12 13
2 13 14
2 14 15
2 15 16
2 16 17
2 17 18
2 18 19
2 19 20
2 20 21
2 21 22
2 22 23
2 23 24
2 24 25
2 25 26
2 26 27
2 27 28
2 28 29
2 29 30
2 30 31
2 31 32
2 32 33
2 33 34
2 34 35
2 35 36
2 36 37
2 37 38
2 38 39
2 39 40
2 40 41
2 41 42
2 42 43
2 43 44
2 44 45
2 45 46
2 46 47
2 47 48
2 48 49
2 49 50

CELL_TYPES 50
4
4
4
4
4
4
4
4
4
4
4
4
4
4
4
4
4
4
4
4
4
4
4
4
4
4
4
4
4
4
4
4
4
4
4
4
4
4
4
4
4
4
4
4
4
4
4
4
4
4

POINT_DATA 51

SCALARS zone float
LOOKUP_TABLE default
1.0
1.0
1.0
1.0
1.0
1.0
1.0
1.0
1.0
1.0
1.0
1.0
1.0
1.0
1.0
1.0
1.0
1.0
1.0
1.0
1.0
1.0
1.0
1.0
1.0
1.0
1.0
1.0
1.0
1.0
1.0
1.0
1.0
1.0
1.0
1.0
1.0
1.0
1.0
1.0
1.0
1.0
1.0
1.0
1.0
1.0
1.0
1.0
1.0
1.0
1.0

VECTORS normals float
-0.00011546154564712197 -0.0014768404653295875 0.0014482674887403846
-0.00022074757725931704 -0.0028010488022118807 0.002995440736413002
-0.0002789688587654382 -0.0025832487735897303 0.0031057875603437424
-0.00040420211735181516 -0.002459128387272358 0.0031224549748003483
-0.00044531151070259506 -0.0024129182565957308 0.0030612123664468527
-0.0003278949297964573 -0.002559279790148139 0.0028073976282030344
-9.220571519108489e-5 -0.002746797865256667 0.0025124268140643835
0.00013812060933560133 -0.002731052227318287 0.0024207194801419973
0.0002748481638263911 -0.002684319159016013 0.0023599995765835047
0.0003148686664644629 -0.002693386748433113 0.0022434790153056383
0.00028992604347877204 -0.0026174073573201895 0.0022120054345577955
0.00022987906413618475 -0.0025206657592207193 0.002201294293627143
0.00015821750275790691 -0.002481135306879878 0.002133371541276574
9.200429485645145e-5 -0.002467337530106306 0.0020397165790200233
4.130187880946323e-5 -0.0024284457322210073 0.001971155172213912
9.696207598608453e-6 -0.0023487566504627466 0.0019433913985267284
-4.217552486807108e-6 -0.0022440138272941113 0.001940681366249919
-5.062076070316834e-6 -0.002145199803635478 0.0019320424180477858
1.7121039945777738e-6 -0.0020747289527207613 0.0018950604135170581
1.1616368283284828e-5 -0.002032327465713024 0.0018300089286640286
2.149965257558506e-5 -0.0020006869453936815 0.0017541964771226048
2.9418395570246506e-5 -0.0019610729068517685 0.001686357660219073
3.442417073529214e-5 -0.0019049805123358965 0.0016349969664588568
3.63165709131863e-5 -0.0018334746127948163 0.0015990498941391706
3.5412773286225274e-5 -0.0017514261417090893 0.0015736455097794533
3.2357384043280035e-5 -0.0016640381654724479 0.0015535805141553283
2.7964591936324723e-5 -0.0015760601963847876 0.0015341055113822222
2.309120463905856e-5 -0.0014915993670001626 0.0015111134853214025
1.854042238846887e-5 -0.0014139541890472174 0.0014813056914135814
1.493051149736857e-5 -0.0013450513361021876 0.0014427556889131665
1.2542826880235225e-5 -0.0012846526224166155 0.0013957014307379723
1.1316546078887768e-5 -0.0012304853880777955 0.0013424156932160258
1.0972400559694506e-5 -0.0011791882570832968 0.0012862598523497581
1.1129222002637107e-5 -0.0011271588737145066 0.0012308362638577819
1.1389166502340231e-5 -0.0010711507638916373 0.0011793914018198848
1.1396474292268977e-5 -0.001008661580272019 0.0011344276135787368
1.0874458894249983e-5 -0.0009384534205310047 0.0010971828596666455
9.644884812587406e-6 -0.0008620831067673862 0.0010661003179848194
7.633578206878155e-6 -0.0007847183151170611 0.0010360120795667171
4.865619757765671e-6 -0.000713311368599534 0.0009999661706387997
1.4529367717841524e-6 -0.0006541086477227509 0.0009517159196548164
-2.4232347186625702e-6 -0.0006113593117333949 0.0008870122837834061
-6.532860879815417e-6 -0.0005885158316232264 0.0008024028502404691
-1.0618759006320033e-5 -0.0005898187519051135 0.0006936469580978155
-1.4417873899219556e-5 -0.0006178382318466902 0.0005581745645031333
-1.7680962628219277e-5 -0.000669673434458673 0.000398886390030384
-2.018977284024004e-5 -0.0007359719602391124 0.00022513493604492396
-2.1771005776827224e-5 -0.0008023297414183617 5.132417936692946e-5
-2.2306650862446986e-5 -0.0008519439143128694 -0.00010574292537057772
-2.1740446754847653e-5 -0.0008686450892128049 -0.00022989703575149176
-1.058942416420905e-5 -0.00043344034929759806 -0.00014092956553213298

CELL_DATA 50

VECTORS liftinglineloading               float
0.12621240317821503 -0.06998934596776962 -0.08341006189584732
0.18140819668769836 -0.1142496168613434 -0.13615739345550537
-0.070686474442482 -0.03569667786359787 -0.04254164546728134
0.136621356010437 -0.046954527497291565 -0.05595822632312774
0.16236214339733124 -0.07407054305076599 -0.08827383071184158
-0.4224098324775696 -0.2332027405500412 -0.2779201865196228
-1.5733767747879028 -0.5482161045074463 -0.6533385515213013
-3.0777387619018555 -0.9002732634544373 -1.0729038715362549
-4.909983158111572 -1.2641217708587646 -1.5065217018127441
-6.937914848327636 -1.6361638307571411 -1.9499042034149168
-8.995107650756836 -1.9734514951705933 -2.351867914199829
-10.779431343078613 -2.2456607818603516 -2.676274299621582
-11.927334785461426 -2.389383316040039 -2.8475561141967773
-12.849963188171387 -2.488096237182617 -2.9651975631713867
-13.489192008972168 -2.5095090866088867 -2.9907164573669434
-13.946368217468262 -2.5047733783721924 -2.985072612762451
-13.807761192321776 -2.378302812576294 -2.834351062774658
-13.924988746643066 -2.3369953632354736 -2.7851226329803467
-14.525153160095215 -2.328730583190918 -2.775273084640503
-14.42088794708252 -2.2424821853637695 -2.6724860668182373
-14.374176025390623 -2.1870949268341064 -2.606478214263916
-14.447020530700685 -2.096951484680176 -2.499049663543701
-14.787785530090334 -2.151214838027954 -2.56371808052063
-14.557126045227049 -2.0655415058135986 -2.461616277694702
-15.451771736145021 -2.088778257369995 -2.489309072494507
-16.784955978393555 -2.045624256134033 -2.437880039215088
-17.315195083618164 -2.0141184329986572 -2.4003326892852783
-19.028350830078125 -2.1519811153411865 -2.564631462097168
-20.495590209960938 -2.1683614253997803 -2.5841524600982666
-21.673437118530273 -2.1409151554107666 -2.551443338394165
-22.825000762939453 -2.0435256958007812 -2.4353790283203125
-23.732057571411133 -1.9195293188095093 -2.2876060009002686
-24.39115333557129 -1.8771485090255737 -2.237098455429077
-24.89347267150879 -1.7232952117919924 -2.053743362426758
-24.96944236755371 -1.6439635753631592 -1.9591994285583496
-24.786455154418945 -1.537131428718567 -1.8318818807601926
-24.352100372314453 -1.3826783895492554 -1.6478120088577273
-23.466249465942383 -1.2910691499710083 -1.538636326789856
-22.484725952148438 -1.2245498895645142 -1.4593616724014282
-21.491382598876953 -1.122304081916809 -1.3375099897384644
-20.492252349853516 -1.058928370475769 -1.2619816064834595
-18.474109649658203 -1.0200035572052002 -1.2155929803848267
-15.428271293640137 -1.0553635358810425 -1.2577332258224487
-12.931173324584961 -1.0283491611480713 -1.2255388498306274
-10.428680419921875 -1.1585170030593872 -1.3806668519973755
-8.812023162841797 -1.19298255443573 -1.421741247177124
-6.971860885620116 -1.1741983890533447 -1.399355173110962
-5.336305141448975 -1.1639721393585205 -1.3871679306030273
-3.516919136047363 -1.1354678869247437 -1.3531979322433472
-1.8992627859115603 -1.1002081632614136 -1.3111770153045654