# vtk DataFile Version 4.0
 
ASCII
DATASET UNSTRUCTURED_GRID
POINTS 51 float
0.0032294827979058027 0.006240000016987324 -0.004364748019725084
0.0029985597357153893 0.01037672720849514 -0.004324339795857668
0.0027879877015948296 0.014437473379075527 -0.004639660008251667
0.0024406220763921738 0.018422240391373634 -0.005063320975750685
0.001979583641514182 0.022331025451421738 -0.005577745381742716
0.0015499991131946445 0.026163829490542415 -0.005980147514492273
0.0013237936655059457 0.029920652508735657 -0.005928636994212866
0.00136558769736439 0.03360149636864662 -0.005648696795105934
0.0016000348841771481 0.03720635920763016 -0.00548976007848978
0.0019152839668095112 0.040735241025686264 -0.005190039519220591
0.002229772275313735 0.04418814182281494 -0.004853494465351105
0.002495136111974716 0.04756506159901619 -0.004616714548319578
0.002689530374482274 0.05086600035429001 -0.004401834681630135
0.00281157111749053 0.054090958088636405 -0.004124902654439211
0.0028735389932990074 0.05723993852734566 -0.003797087585553527
0.00289417477324605 0.06031293421983719 -0.003478195983916521
0.0028929314576089382 0.06330995261669159 -0.003223814535886049
0.0028857397846877575 0.06623098999261856 -0.003049219027161598
0.002882807282730937 0.0690760463476181 -0.002922364743426442
0.002889164024963975 0.07184511423110962 -0.0027951295487582684
0.002906039822846651 0.0745382085442543 -0.002636243123561144
0.0029321631882339716 0.07715532183647156 -0.002446539234369993
0.002964876824989915 0.07969645410776138 -0.002247737254947424
0.003001011675223708 0.08216160535812378 -0.0020647249184548855
0.003037509974092245 0.08455078303813934 -0.0019162106327712536
0.0030718371272087097 0.08686397224664688 -0.0018133050762116911
0.003102224553003907 0.08910118043422699 -0.0017599998973309994
0.0031277663074433804 0.09126240760087967 -0.0017539722612127662
0.0031484069768339396 0.09334765374660492 -0.0017875969642773268
0.0031648471485823393 0.09535692632198334 -0.0018492217641323807
0.0031782679725438356 0.09729021042585373 -0.0019257718231528997
0.0031899327877908945 0.09914752095937729 -0.0020062685944139957
0.0032009012065827847 0.10092884302139282 -0.002084064995869994
0.003211877541616559 0.10263418406248094 -0.002157690702006221
0.003223159583285451 0.10426355153322218 -0.002230687066912651
0.003234656061977148 0.10581693798303606 -0.0023107659071683884
0.0032459525391459465 0.10729433596134187 -0.002408547094091773
0.0032564047724008556 0.10869576036930083 -0.002535243285819888
0.0032652423251420264 0.1100212037563324 -0.0026970708277076483
0.003271671943366527 0.11127065867185593 -0.002890626434236765
0.0032749734818935394 0.11244414001703264 -0.003102462040260434
0.0032745779026299715 0.11354164034128189 -0.003311506705358624
0.0032701271120458846 0.11456315964460372 -0.0034922941122204065
0.0032615121454000473 0.11550869792699814 -0.0036139884032309055
0.0032488894648849964 0.11637825518846512 -0.0036391294561326504
0.003232676535844803 0.11717183142900467 -0.003529611276462674
0.0032135276123881336 0.11788942664861679 -0.003256178693845868
0.003192296950146556 0.11853104084730147 -0.0028071787673979998
0.0031699857208877806 0.11909667402505875 -0.0021940963342785835
0.003147683572024107 0.11958632618188858 -0.001452805008739233
0.0031265048310160637 0.11999999731779097 -0.0006405232707038522

CELLS 50 150
2 0 1
2 1 2
2 2 3
2 3 4
2 4 5
2 5 6
2 6 7
2 7 8
2 8 9
2 9 10
2 10 11
2 11 12
2 12 13
2 13 14
2 14 15
2 15 16
2 16 17
2 17 18
2 18 19
2 19 20
2 20 21
2 21 22
2 22 23
2 23 24
2 24 25
2 25 26
2 26 27
2 27 28
2 28 29
2 29 30
2 30 31
2 31 32
2 32 33
2 33 34
2 34 35
2 35 36
2 36 37
2 37 38
2 38 39
2 39 40
2 40 41
2 41 42
2 42 43
2 43 44
2 44 45
2 45 46
2 46 47
2 47 48
2 48 49
2 49 50

CELL_TYPES 50
4
4
4
4
4
4
4
4
4
4
4
4
4
4
4
4
4
4
4
4
4
4
4
4
4
4
4
4
4
4
4
4
4
4
4
4
4
4
4
4
4
4
4
4
4
4
4
4
4
4

POINT_DATA 51

SCALARS zone float
LOOKUP_TABLE default
1.0
1.0
1.0
1.0
1.0
1.0
1.0
1.0
1.0
1.0
1.0
1.0
1.0
1.0
1.0
1.0
1.0
1.0
1.0
1.0
1.0
1.0
1.0
1.0
1.0
1.0
1.0
1.0
1.0
1.0
1.0
1.0
1.0
1.0
1.0
1.0
1.0
1.0
1.0
1.0
1.0
1.0
1.0
1.0
1.0
1.0
1.0
1.0
1.0
1.0
1.0

VECTORS normals float
-0.00011546154564712197 0.002068363595753908 2.020418287429493e-5
-0.00022074757725931704 0.004098737146705389 -0.00013745584874413908
-0.0002789688587654382 0.00402275612577796 -0.0003694906772579998
-0.00040420211735181516 0.003946775570511818 -0.00046904280316084623
-0.00044531151070259506 0.0038707947824150324 -0.0004584132111631334
-0.0003278949297964573 0.003794813994318247 -0.00017544583533890545
-9.220571519108489e-5 0.003718833439052105 0.00016572547610849142
0.00013812060933560133 0.0036428526509553194 0.00021943853062111884
0.0002748481638263911 0.003566872095689177 0.00022932857973501086
0.0003148686664644629 0.0034908913075923915 0.0003181328938808292
0.00028992604347877204 0.003414910519495607 0.0002866623690351844
0.00022987906413618475 0.003338929964229465 0.0002258297463413328
0.00015821750275790691 0.003262949176132679 0.00024590615066699684
9.200429485645145e-5 0.0031869683880358934 0.00030237360624596477
4.130187880946323e-5 0.0031109878327697515 0.00032335324794985354
9.696207598608453e-6 0.003035007044672966 0.0002866365248337388
-4.217552486807108e-6 0.0029590262565761805 0.00021448842016980055
-5.062076070316834e-6 0.0028830457013100386 0.00015072498354129493
1.7121039945777738e-6 0.002807064913213253 0.00012704473920166492
1.1616368283284828e-5 0.0027310841251164675 0.00014306072262115777
2.149965257558506e-5 0.0026551035698503256 0.00017429512809030712
2.9418395570246506e-5 0.00257912278175354 0.00019425296341069043
3.442417073529214e-5 0.002503142226487398 0.00019090724526904523
3.63165709131863e-5 0.0024271614383906126 0.0001657633256400004
3.5412773286225274e-5 0.002351180650293827 0.0001257098774658516
3.2357384043280035e-5 0.002275200095027685 7.810533861629665e-5
2.7964591936324723e-5 0.0021992193069308996 2.9666427508345805e-5
2.309120463905856e-5 0.002123238518834114 -1.379852710670093e-5
1.854042238846887e-5 0.002047257963567972 -4.762474782182835e-5
1.493051149736857e-5 0.0019712771754711866 -6.90874076099135e-5
1.2542826880235225e-5 0.0018952965037897231 -7.852337876101956e-5
1.1316546078887768e-5 0.0018193157156929374 -7.91466300142929e-5
1.0972400559694506e-5 0.0017433350440114737 -7.571109017590061e-5
1.1129222002637107e-5 0.00166735437233001 -7.331099186558276e-5
1.1389166502340231e-5 0.0015913737006485462 -7.653764623682946e-5
1.1396474292268977e-5 0.0015153929125517607 -8.893001358956099e-5
1.0874458894249983e-5 0.001439412240870297 -0.0001122386602219194
9.644884812587406e-6 0.0013634315691888332 -0.00014426192501559854
7.633578206878155e-6 0.0012874507810920477 -0.00017769155965652317
4.865619757765671e-6 0.001211470109410584 -0.00020269551896490157
1.4529367717841524e-6 0.0011354894377291203 -0.00021044010645709935
-2.4232347186625702e-6 0.0010595087660476565 -0.00019491606508381665
-6.532860879815417e-6 0.000983527977950871 -0.0001512409362476319
-1.0618759006320033e-5 0.0009075473062694074 -7.341764285229146e-5
-1.4417873899219556e-5 0.0008315665763802826 4.218858157400973e-5
-1.7680962628219277e-5 0.0007555859046988189 0.00019147533748764545
-2.018977284024004e-5 0.0006796051748096943 0.0003612163127399981
-2.1771005776827224e-5 0.0006036245031282306 0.0005310411215759814
-2.2306650862446986e-5 0.0005276437732391059 0.0006771868793293834
-2.1740446754847653e-5 0.0004516630724538117 0.0007767865899950266
-1.058942416420905e-5 0.00020683636830653995 0.00040614086901769037

CELL_DATA 50

VECTORS liftinglineloading               float
0.14296190440654755 -0.01025165244936943 0.11717692762613295
0.215290829539299 -0.017624076455831528 0.2014441043138504
-0.07185633480548859 -0.004281520843505859 0.04893800988793373
0.12883701920509338 -0.006235317327082157 0.07127000391483307
0.141302227973938 -0.010828370228409767 0.12376883625984192
-0.5595759749412537 -0.03640621528029442 0.41612496972084045
-1.749652862548828 -0.07919062674045563 0.9051529765129088
-3.4212167263031006 -0.12855590879917145 1.4694007635116577
-5.365421295166016 -0.17804278433322906 2.0350382328033447
-7.563806056976318 -0.2295267879962921 2.6235032081604004
-9.727460861206055 -0.27521201968193054 3.1456878185272217
-11.62967300415039 -0.3116009831428528 3.561615467071533
-12.918212890625 -0.33098432421684265 3.7831680774688716
-13.873847007751465 -0.34489357471466064 3.94215178489685
-14.599783897399902 -0.3500552177429199 4.001149654388428
-15.124374389648438 -0.3499341607093811 3.9997658729553223
-15.222434997558594 -0.33861491084098816 3.8703861236572266
-15.145483970642088 -0.3291069567203522 3.761709928512573
-16.010202407836914 -0.33012914657592773 3.773393392562866
-15.894075393676758 -0.31729164719581604 3.6266601085662846
-15.828912734985352 -0.30891063809394836 3.530864715576172
-15.717088699340822 -0.29411450028419495 3.3617441654205322
-16.002639770507812 -0.2996087074279785 3.4245431423187256
-15.714978218078613 -0.2870365083217621 3.2808423042297368
-16.53919792175293 -0.2886100113391876 3.2988276481628422
-17.78127670288086 -0.2815747857093811 3.218414545059204
-18.32626724243164 -0.277238130569458 3.1688461303710938
-20.04746437072754 -0.294180303812027 3.3624963760375977
-21.495439529418945 -0.2953788638114929 3.3761959075927734
-22.63016128540039 -0.29054608941078186 3.320956945419311
-23.644895553588867 -0.2767808735370636 3.1636199951171875
-24.453107833862305 -0.2588431239128113 2.958590269088745
-25.028676986694336 -0.25333911180496216 2.895679473876953
-25.3663330078125 -0.2311960309743881 2.642582654953003
-25.407100677490234 -0.22044269740581515 2.519671678543091
-25.189517974853516 -0.20600090920925138 2.3546011447906494
-24.73019027709961 -0.18557830154895782 2.1211695671081543
-23.79581069946289 -0.1733037680387497 1.9808712005615232
-22.800281524658203 -0.16448664665222168 1.8800909519195554
-21.787216186523438 -0.1504935920238495 1.7201496362686157
-20.780029296875 -0.1421939581632614 1.6252844333648682
-18.762454986572266 -0.1371738612651825 1.5679043531417847
-15.69178581237793 -0.1426430344581604 1.630417346954346
-13.163634300231934 -0.13925370573997498 1.591677188873291
-10.631722450256348 -0.1576230525970459 1.801639676094055
-9.014349937438965 -0.16242893040180206 1.8565711975097654
-7.156782150268555 -0.16012342274188995 1.8302190303802492
-5.503493309020996 -0.15881317853927612 1.815242886543274
-3.6476151943206787 -0.15510568022727966 1.772866129875183
-1.9774601459503172 -0.15054897964000702 1.7207827568054197