# vtk DataFile Version 4.0
 
ASCII
DATASET UNSTRUCTURED_GRID
POINTS 51 float
0.0032294827979058027 0.004364748019725084 0.006240000016987324
0.0029985597357153893 0.004324339795857668 0.01037672720849514
0.0027879877015948296 0.004639660008251667 0.014437473379075527
0.0024406220763921738 0.005063320975750685 0.018422240391373634
0.001979583641514182 0.005577745381742716 0.022331025451421738
0.0015499991131946445 0.005980147514492273 0.026163829490542415
0.0013237936655059457 0.005928636994212866 0.029920652508735657
0.00136558769736439 0.005648696795105934 0.03360149636864662
0.0016000348841771481 0.00548976007848978 0.03720635920763016
0.0019152839668095112 0.005190039519220591 0.040735241025686264
0.002229772275313735 0.004853494465351105 0.04418814182281494
0.002495136111974716 0.004616714548319578 0.04756506159901619
0.002689530374482274 0.004401834681630135 0.05086600035429001
0.00281157111749053 0.004124902654439211 0.054090958088636405
0.0028735389932990074 0.003797087585553527 0.05723993852734566
0.00289417477324605 0.003478195983916521 0.06031293421983719
0.0028929314576089382 0.003223814535886049 0.06330995261669159
0.0028857397846877575 0.003049219027161598 0.06623098999261856
0.002882807282730937 0.002922364743426442 0.0690760463476181
0.002889164024963975 0.0027951295487582684 0.07184511423110962
0.002906039822846651 0.002636243123561144 0.0745382085442543
0.0029321631882339716 0.002446539234369993 0.07715532183647156
0.002964876824989915 0.002247737254947424 0.07969645410776138
0.003001011675223708 0.0020647249184548855 0.08216160535812378
0.003037509974092245 0.0019162106327712536 0.08455078303813934
0.0030718371272087097 0.0018133050762116911 0.08686397224664688
0.003102224553003907 0.0017599998973309994 0.08910118043422699
0.0031277663074433804 0.0017539722612127662 0.09126240760087967
0.0031484069768339396 0.0017875969642773268 0.09334765374660492
0.0031648471485823393 0.0018492217641323807 0.09535692632198334
0.0031782679725438356 0.0019257718231528997 0.09729021042585373
0.0031899327877908945 0.0020062685944139957 0.09914752095937729
0.0032009012065827847 0.002084064995869994 0.10092884302139282
0.003211877541616559 0.002157690702006221 0.10263418406248094
0.003223159583285451 0.002230687066912651 0.10426355153322218
0.003234656061977148 0.0023107659071683884 0.10581693798303606
0.0032459525391459465 0.002408547094091773 0.10729433596134187
0.0032564047724008556 0.002535243285819888 0.10869576036930083
0.0032652423251420264 0.0026970708277076483 0.1100212037563324
0.003271671943366527 0.002890626434236765 0.11127065867185593
0.0032749734818935394 0.003102462040260434 0.11244414001703264
0.0032745779026299715 0.003311506705358624 0.11354164034128189
0.0032701271120458846 0.0034922941122204065 0.11456315964460372
0.0032615121454000473 0.0036139884032309055 0.11550869792699814
0.0032488894648849964 0.0036391294561326504 0.11637825518846512
0.003232676535844803 0.003529611276462674 0.11717183142900467
0.0032135276123881336 0.003256178693845868 0.11788942664861679
0.003192296950146556 0.0028071787673979998 0.11853104084730147
0.0031699857208877806 0.0021940963342785835 0.11909667402505875
0.003147683572024107 0.001452805008739233 0.11958632618188858
0.0031265048310160637 0.0006405232707038522 0.11999999731779097

CELLS 50 150
2 0 1
2 1 2
2 2 3
2 3 4
2 4 5
2 5 6
2 6 7
2 7 8
2 8 9
2 9 10
2 10 11
2 11 12
2 12 13
2 13 14
2 14 15
2 15 16
2 16 17
2 17 18
2 18 19
2 19 20
2 20 21
2 21 22
2 22 23
2 23 24
2 24 25
2 25 26
2 26 27
2 27 28
2 28 29
2 29 30
2 30 31
2 31 32
2 32 33
2 33 34
2 34 35
2 35 36
2 36 37
2 37 38
2 38 39
2 39 40
2 40 41
2 41 42
2 42 43
2 43 44
2 44 45
2 45 46
2 46 47
2 47 48
2 48 49
2 49 50

CELL_TYPES 50
4
4
4
4
4
4
4
4
4
4
4
4
4
4
4
4
4
4
4
4
4
4
4
4
4
4
4
4
4
4
4
4
4
4
4
4
4
4
4
4
4
4
4
4
4
4
4
4
4
4

POINT_DATA 51

SCALARS zone float
LOOKUP_TABLE default
1.0
1.0
1.0
1.0
1.0
1.0
1.0
1.0
1.0
1.0
1.0
1.0
1.0
1.0
1.0
1.0
1.0
1.0
1.0
1.0
1.0
1.0
1.0
1.0
1.0
1.0
1.0
1.0
1.0
1.0
1.0
1.0
1.0
1.0
1.0
1.0
1.0
1.0
1.0
1.0
1.0
1.0
1.0
1.0
1.0
1.0
1.0
1.0
1.0
1.0
1.0

VECTORS normals float
-0.00011546154564712197 -2.020418287429493e-5 0.002068363595753908
-0.00022074757725931704 0.00013745584874413908 0.004098737146705389
-0.0002789688587654382 0.0003694906772579998 0.00402275612577796
-0.00040420211735181516 0.00046904280316084623 0.003946775570511818
-0.00044531151070259506 0.0004584132111631334 0.0038707947824150324
-0.0003278949297964573 0.00017544583533890545 0.003794813994318247
-9.220571519108489e-5 -0.00016572547610849142 0.003718833439052105
0.00013812060933560133 -0.00021943853062111884 0.0036428526509553194
0.0002748481638263911 -0.00022932857973501086 0.003566872095689177
0.0003148686664644629 -0.0003181328938808292 0.0034908913075923915
0.00028992604347877204 -0.0002866623690351844 0.003414910519495607
0.00022987906413618475 -0.0002258297463413328 0.003338929964229465
0.00015821750275790691 -0.00024590615066699684 0.003262949176132679
9.200429485645145e-5 -0.00030237360624596477 0.0031869683880358934
4.130187880946323e-5 -0.00032335324794985354 0.0031109878327697515
9.696207598608453e-6 -0.0002866365248337388 0.003035007044672966
-4.217552486807108e-6 -0.00021448842016980055 0.0029590262565761805
-5.062076070316834e-6 -0.00015072498354129493 0.0028830457013100386
1.7121039945777738e-6 -0.00012704473920166492 0.002807064913213253
1.1616368283284828e-5 -0.00014306072262115777 0.0027310841251164675
2.149965257558506e-5 -0.00017429512809030712 0.0026551035698503256
2.9418395570246506e-5 -0.00019425296341069043 0.00257912278175354
3.442417073529214e-5 -0.00019090724526904523 0.002503142226487398
3.63165709131863e-5 -0.0001657633256400004 0.0024271614383906126
3.5412773286225274e-5 -0.0001257098774658516 0.002351180650293827
3.2357384043280035e-5 -7.810533861629665e-5 0.002275200095027685
2.7964591936324723e-5 -2.9666427508345805e-5 0.0021992193069308996
2.309120463905856e-5 1.379852710670093e-5 0.002123238518834114
1.854042238846887e-5 4.762474782182835e-5 0.002047257963567972
1.493051149736857e-5 6.90874076099135e-5 0.0019712771754711866
1.2542826880235225e-5 7.852337876101956e-5 0.0018952965037897231
1.1316546078887768e-5 7.91466300142929e-5 0.0018193157156929374
1.0972400559694506e-5 7.571109017590061e-5 0.0017433350440114737
1.1129222002637107e-5 7.331099186558276e-5 0.00166735437233001
1.1389166502340231e-5 7.653764623682946e-5 0.0015913737006485462
1.1396474292268977e-5 8.893001358956099e-5 0.0015153929125517607
1.0874458894249983e-5 0.0001122386602219194 0.001439412240870297
9.644884812587406e-6 0.00014426192501559854 0.0013634315691888332
7.633578206878155e-6 0.00017769155965652317 0.0012874507810920477
4.865619757765671e-6 0.00020269551896490157 0.001211470109410584
1.4529367717841524e-6 0.00021044010645709935 0.0011354894377291203
-2.4232347186625702e-6 0.00019491606508381665 0.0010595087660476565
-6.532860879815417e-6 0.0001512409362476319 0.000983527977950871
-1.0618759006320033e-5 7.341764285229146e-5 0.0009075473062694074
-1.4417873899219556e-5 -4.218858157400973e-5 0.0008315665763802826
-1.7680962628219277e-5 -0.00019147533748764545 0.0007555859046988189
-2.018977284024004e-5 -0.0003612163127399981 0.0006796051748096943
-2.1771005776827224e-5 -0.0005310411215759814 0.0006036245031282306
-2.2306650862446986e-5 -0.0006771868793293834 0.0005276437732391059
-2.1740446754847653e-5 -0.0007767865899950266 0.0004516630724538117
-1.058942416420905e-5 -0.00040614086901769037 0.00020683636830653995

CELL_DATA 50

VECTORS liftinglineloading               float
0.12719973921775818 -0.10869494825601578 -0.009509575553238392
0.18287841975688934 -0.17803308367729187 -0.015575877390801907
-0.07066009193658829 -0.055588774383068085 -0.004863387439399958
0.14029289782047272 -0.07350996881723404 -0.006431288551539183
0.13843253254890442 -0.12528498470783234 -0.0109610166400671
-0.5091509819030762 -0.3966676592826843 -0.034703921526670456
-1.6174994707107544 -0.8646426200866698 -0.07564643025398254
-3.1904969215393066 -1.423111915588379 -0.1245061606168747
-5.05179500579834 -1.9880350828170776 -0.17393052577972412
-7.123371601104736 -2.569385528564453 -0.22479210793972015
-8.928634643554688 -3.0446410179138184 -0.26637157797813416
-10.919034004211426 -3.498273611068726 -0.3060593008995056
-12.142291069030762 -3.728575944900513 -0.3262081444263458
-13.073301315307617 -3.8838951587677006 -0.3397968113422394
-13.731109619140627 -3.922304630279541 -0.34315717220306396
-14.208001136779783 -3.9173810482025146 -0.3427264392375946
-14.274304389953613 -3.7599501609802246 -0.3289530277252197
-14.193561553955078 -3.6610534191131587 -0.3203006684780121
-14.981388092041017 -3.6711649894714355 -0.32118532061576843
-14.910773277282715 -3.537372589111328 -0.3094799816608429
-14.904011726379396 -3.453100442886353 -0.3021071255207062
-14.981230735778809 -3.3091070652008057 -0.2895093560218811
-15.397713661193848 -3.394820213317871 -0.2970082759857178
-15.27091121673584 -3.2669620513916016 -0.28582215309143066
-16.30438804626465 -3.305556058883667 -0.2891986668109894
-17.78578758239746 -3.2408552169799805 -0.2835381031036377
-18.56378936767578 -3.203979969024658 -0.2803119122982025
-20.68818473815918 -3.4125592708587646 -0.298560231924057
-22.384695053100586 -3.4264304637908936 -0.29977381229400635
-23.73784065246582 -3.3641333580017094 -0.29432353377342224
-24.846773147583008 -3.2009685039520264 -0.2800484597682953
-25.720781326293945 -2.9775240421295166 -0.26049959659576416
-26.324024200439453 -2.915480613708496 -0.2550714910030365
-26.65902900695801 -2.6311604976654053 -0.23019671440124512
-26.770477294921875 -2.500089406967163 -0.21872948110103607
-26.484819412231445 -2.3319666385650635 -0.20402063429355624
-25.959131240844727 -2.1074063777923584 -0.18437416851520538
-24.895647048950195 -1.968616247177124 -0.17223159968852997
-23.841588973999023 -1.871012568473816 -0.1636923849582672
-22.75975227355957 -1.7056790590286255 -0.149227574467659
-21.70978355407715 -1.616370439529419 -0.1414140909910202
-19.578868865966797 -1.5667784214019775 -0.13707534968852997
-16.434274673461914 -1.6439030170440674 -0.14382287859916687
-13.85857677459717 -1.6104267835617065 -0.1408940851688385
-11.225282669067383 -1.8371554613113403 -0.1607302725315094
-9.574880599975586 -1.8938156366348264 -0.16568739712238312
-7.6525330543518075 -1.8702927827835083 -0.163629412651062
-5.941126823425293 -1.854850649833679 -0.162278413772583
-3.994703769683838 -1.813214659690857 -0.1586357206106186
-2.2158052921295166 -1.7618683576583862 -0.15414351224899292