# vtk DataFile Version 4.0
 
ASCII
DATASET UNSTRUCTURED_GRID
POINTS 51 float
0.0032294827979058027 0.007586372550576925 -0.0006599827902391553
0.0029985597357153893 0.011148679070174694 0.0014433754840865731
0.0027879877015948296 0.014823049306869505 0.0032006734982132907
0.0024406220763921738 0.018485788255929947 0.00482615502551198
0.001979583641514182 0.022128107026219368 0.006335043348371983
0.0015499991131946445 0.025648614391684536 0.007902954705059528
0.0013237936655059457 0.02887636423110962 0.009825976565480232
0.00136558769736439 0.03192409873008728 0.01190883293747902
0.0016000348841771481 0.03496653214097023 0.013848907314240932
0.0019152839668095112 0.03787277266383171 0.015872914344072342
0.002229772275313735 0.04069479927420616 0.017890820279717445
0.002495136111974716 0.043500907719135284 0.019784338772296906
0.002689530374482274 0.046252164989709854 0.021620899438858032
0.00281157111749053 0.0489065945148468 0.023473208770155907
0.0028735389932990074 0.05146978422999382 0.025331594049930573
0.00289417477324605 0.053971633315086365 0.02714426070451736
0.0028929314576089382 0.05643993243575096 0.02886307053267956
0.0028857397846877575 0.05888232588768006 0.030474793165922165
0.002882807282730937 0.06128279119729995 0.03200718015432358
0.002889164024963975 0.06361725926399231 0.03350190445780754
0.002906039822846651 0.06587010622024536 0.03498605266213417
0.0029321631882339716 0.06804174184799194 0.03645889833569527
0.002964876824989915 0.07014302164316177 0.037901632487773895
0.003001011675223708 0.07218640297651291 0.039292700588703156
0.003037509974092245 0.07418122887611389 0.04061590135097504
0.0030718371272087097 0.07613305747509003 0.04186161607503891
0.003102224553003907 0.07804388552904129 0.043026383966207504
0.0031277663074433804 0.07991255074739456 0.04411222040653229
0.0031484069768339396 0.08173523843288422 0.045125722885131836
0.0031648471485823393 0.08350612968206406 0.04607699066400528
0.0031782679725438356 0.08521868288516998 0.04697733744978905
0.0031899327877908945 0.08686739951372147 0.04783627763390541
0.0032009012065827847 0.08844897150993347 0.048659566789865494
0.003211877541616559 0.0899626612663269 0.04944847896695137
0.003223159583285451 0.09141022711992264 0.05019994452595711
0.003234656061977148 0.09279553592205048 0.050907284021377563
0.0032459525391459465 0.09412389248609543 0.05156130716204643
0.0032564047724008556 0.09540090709924698 0.05215229466557503
0.0032652423251420264 0.09662968665361404 0.052674867212772376
0.003271671943366527 0.09780853241682053 0.05313197523355484
0.0032749734818935394 0.0989307165145874 0.053535260260105126
0.0032745779026299715 0.09998569637537003 0.05390297248959541
0.0032701271120458846 0.10096075385808945 0.054257165640592575
0.0032615121454000473 0.10184045881032944 0.054624542593956
0.0032488894648849964 0.10260608792304994 0.055037546902894974
0.003232676535844803 0.10323859006166457 0.05552918091416358
0.0032135276123881336 0.10372332483530043 0.05612478032708168
0.003192296950146556 0.10405448079109192 0.056834433227777474
0.0031699857208877806 0.10423779487609863 0.0576481930911541
0.003147683572024107 0.10429120063781738 0.05853499844670296
0.0031265048310160637 0.10424330830574037 0.05944529175758362

CELLS 50 150
2 0 1
2 1 2
2 2 3
2 3 4
2 4 5
2 5 6
2 6 7
2 7 8
2 8 9
2 9 10
2 10 11
2 11 12
2 12 13
2 13 14
2 14 15
2 15 16
2 16 17
2 17 18
2 18 19
2 19 20
2 20 21
2 21 22
2 22 23
2 23 24
2 24 25
2 25 26
2 26 27
2 27 28
2 28 29
2 29 30
2 30 31
2 31 32
2 32 33
2 33 34
2 34 35
2 35 36
2 36 37
2 37 38
2 38 39
2 39 40
2 40 41
2 41 42
2 42 43
2 43 44
2 44 45
2 45 46
2 46 47
2 47 48
2 48 49
2 49 50

CELL_TYPES 50
4
4
4
4
4
4
4
4
4
4
4
4
4
4
4
4
4
4
4
4
4
4
4
4
4
4
4
4
4
4
4
4
4
4
4
4
4
4
4
4
4
4
4
4
4
4
4
4
4
4

POINT_DATA 51

SCALARS zone float
LOOKUP_TABLE default
1.0
1.0
1.0
1.0
1.0
1.0
1.0
1.0
1.0
1.0
1.0
1.0
1.0
1.0
1.0
1.0
1.0
1.0
1.0
1.0
1.0
1.0
1.0
1.0
1.0
1.0
1.0
1.0
1.0
1.0
1.0
1.0
1.0
1.0
1.0
1.0
1.0
1.0
1.0
1.0
1.0
1.0
1.0
1.0
1.0
1.0
1.0
1.0
1.0
1.0
1.0

VECTORS normals float
-0.00011546154564712197 0.001781153376214206 0.0010516791371628642
-0.00022074757725931704 0.003618338145315647 0.001930328202433884
-0.0002789688587654382 0.0036685543600469828 0.0016913898289203642
-0.00040420211735181516 0.003652529325336218 0.0015671848086640239
-0.00044531151070259506 0.0035814133007079363 0.001538399956189096
-0.0003278949297964573 0.003374128369614482 0.001745466492138803
-9.220571519108489e-5 0.003137741470709443 0.0020029391162097454
0.00013812060933560133 0.003045083722099662 0.0020114656072109938
0.0002748481638263911 0.0029743374325335026 0.0019820404704660177
0.0003148686664644629 0.002864134032279253 0.0020209567155689
0.00028992604347877204 0.0028140682261437178 0.001955712214112282
0.00022987906413618475 0.0027786833234131336 0.0018650392303243282
0.00015821750275790691 0.002702843863517046 0.00184443558100611
9.200429485645145e-5 0.002608808921650052 0.001855347421951592
4.130187880946323e-5 0.002532517770305276 0.001835525967180729
9.696207598608453e-6 0.002485075034201145 0.001765738008543849
-4.217552486807108e-6 0.0024553476832807064 0.0016652656486257909
-5.062076070316834e-6 0.0024214282166212797 0.0015720544615760446
1.7121039945777738e-6 0.0023674671538174152 0.0015135564608499408
1.1616368283284828e-5 0.0022936579771339893 0.0014894363703206182
2.149965257558506e-5 0.0022122394293546677 0.0014784957747906446
2.9418395570246506e-5 0.0021364593412727118 0.001457789447158575
3.442417073529214e-5 0.00207233102992177 0.0014169015921652317
3.63165709131863e-5 0.0020191017538309097 0.0013571359449997544
3.5412773286225274e-5 0.001973327249288559 0.0012844583252444863
3.2357384043280035e-5 0.0019313283264636996 0.001205241191200912
2.7964591936324723e-5 0.0018897465197369454 0.0011253015836700797
2.309120463905856e-5 0.001845677848905325 0.0010496694594621658
1.854042238846887e-5 0.0017967897001653908 0.0009823846630752087
1.493051149736857e-5 0.0017417197814211252 0.0009258071659132839
1.2542826880235225e-5 0.0016806365456432104 0.0008796449983492494
1.1316546078887768e-5 0.0016151469899341464 0.0008411149028688668
1.0972400559694506e-5 0.0015476279659196734 0.000806099793408066
1.1129222002637107e-5 0.0014806267572566867 0.0007701879949308932
1.1389166502340231e-5 0.0014164388412609696 0.0007294032839126885
1.1396474292268977e-5 0.0013568338472396135 0.0006806808523833752
1.0874458894249983e-5 0.0013026868691667914 0.0006225045653991401
9.644884812587406e-6 0.0012528973165899515 0.0005567813059315085
7.633578206878155e-6 0.0012038109125569463 0.0004898399929516017
4.865619757765671e-6 0.001150511670857668 0.0004301955923438072
1.4529367717841524e-6 0.0010885827941820025 0.00038549822056666017
-2.4232347186625702e-6 0.0010150194866582751 0.0003609520790632814
-6.532860879815417e-6 0.0009273806936107576 0.00036078551784157753
-1.0618759006320033e-5 0.0008226678473874927 0.00039019211544655263
-1.4417873899219556e-5 0.0006990635301917791 0.00045231968397274613
-1.7680962628219277e-5 0.0005586189217865467 0.0005436154315248132
-2.018977284024004e-5 0.0004079471982549876 0.0006526251090690494
-2.1771005776827224e-5 0.0002572335652075708 0.0007617073715664446
-2.2306650862446986e-5 0.00011835948680527508 0.0008502829005010426
-2.1740446754847653e-5 2.758410573733272e-6 0.000898548460099846
-1.058942416420905e-5 -2.3944885469973087e-5 0.00045514648081734776

CELL_DATA 50

VECTORS liftinglineloading               float
0.126714289188385 -0.06199395284056664 0.08853653818368912
0.1856863796710968 -0.10320845246315004 0.14739693701267242
-0.06904291361570358 -0.030168266966938976 0.043084751814603806
0.13251274824142456 -0.040903206914663315 0.058415833860635764
0.15069739520549774 -0.06692782044410706 0.09558283537626266
-0.46664345264434814 -0.21637940406799316 0.30902183055877686
-1.540711522102356 -0.4794248044490814 0.6846895813941956
-3.0717530250549316 -0.7957770228385925 1.136487364768982
-4.891998291015625 -1.1159225702285767 1.5937025547027588
-6.913387775421142 -1.4443682432174683 2.0627715587615967
-8.959362983703613 -1.7419228553771973 2.4877235889434814
-10.936741828918457 -1.9970971345901487 2.8521502017974854
-11.893348693847656 -2.108795404434204 3.011672019958496
-12.827939987182617 -2.198326349258423 3.139535427093506
-13.496755599975586 -2.221747398376465 3.1729841232299805
-13.990657806396483 -2.220959186553955 3.171858549118042
-14.082395553588867 -2.134084939956665 3.0477890968322754
-14.027709960937498 -2.079904079437256 2.9704108238220215
-14.660587310791017 -2.0746397972106934 2.962892532348633
-14.57912349700928 -1.9987865686416626 2.854562997817993
-14.559447288513184 -1.950851321220398 2.786104440689087
-14.621023178100588 -1.8692222833633425 2.6695261001586914
-14.979564666748047 -1.9164609909057617 2.736989974975586
-14.807226181030273 -1.8426277637481692 2.631545066833496
-15.756690025329588 -1.8636385202407837 2.6615514755249023
-17.085460662841797 -1.8240529298782346 2.60501766204834
-17.617107391357422 -1.7962647676467896 2.5653319358825684
-19.240612030029297 -1.9121180772781372 2.730787515640259
-20.64378547668457 -1.9240938425064087 2.7478907108306885
-21.735811233520508 -1.89751136302948 2.7099270820617676
-22.778318405151367 -1.8102893829345705 2.5853612422943115
-23.59774398803711 -1.7000722885131834 2.427954912185669
-24.187589645385742 -1.66323184967041 2.3753411769866943
-24.544832229614258 -1.529781460762024 2.1847543716430664
-24.593772888183594 -1.4610381126403809 2.086578607559204
-24.40406036376953 -1.3675843477249146 1.9531129598617551
-23.976062774658203 -1.230145812034607 1.7568302154541013
-23.878047943115234 -1.1439462900161743 1.6337246894836426
-22.80946159362793 -1.0865353345870972 1.5517332553863525
-21.73633575439453 -0.9952830672264098 1.4214115142822266
-20.676536560058594 -0.9406445026397706 1.3433796167373657
-18.59921646118164 -0.9074127674102784 1.2959197759628296
-15.508528709411621 -0.9406627416610718 1.3434056043624878
-12.974649429321289 -0.9168488383293153 1.3093957901000977
-10.44510269165039 -1.0333011150360107 1.475706934928894
-8.809953689575195 -1.0634056329727173 1.5187007188796997
-6.95469331741333 -1.045917272567749 1.4937245845794678
-5.308539867401123 -1.0359538793563843 1.4794955253601074
-3.486558675765991 -1.0095523595809937 1.4417901039123535
-1.8670774698257446 -0.9773624539375305 1.3958182334899902