# vtk DataFile Version 4.0
 
ASCII
DATASET UNSTRUCTURED_GRID
POINTS 51 float
0.0032294827979058027 0.0074999830685555935 -0.0013186673168092966
0.0029985597357153893 0.011232053861021996 0.0004662116116378456
0.0027879877015948296 0.01504560001194477 0.0018965802155435083
0.0024406220763921738 0.018836071714758873 0.0031966476235538725
0.001979583641514182 0.02259603887796402 0.0043823448941111565
0.0015499991131946445 0.026239801198244095 0.0056374575942754745
0.0013237936655059457 0.029622871428728104 0.007271844428032637
0.00136558769736439 0.0328405387699604 0.00908114854246378
0.0016000348841771481 0.03604048490524292 0.010748674161732197
0.0019152839668095112 0.03911207243800163 0.012511683627963066
0.002229772275313735 0.042099229991436005 0.014275955967605114
0.002495136111974716 0.0450596921145916 0.01591769978404045
0.002689530374482274 0.0479605495929718 0.017507484182715416
0.00281157111749053 0.05076631531119347 0.01912139542400837
0.0028735389932990074 0.053481720387935645 0.02074931375682354
0.00289417477324605 0.056132033467292786 0.022337032482028008
0.0028929314576089382 0.058740746229887016 0.023834172636270523
0.0028857397846877575 0.06131431460380554 0.0252268947660923
0.002882807282730937 0.06383919715881348 0.026544235646724704
0.002889164024963975 0.0662950649857521 0.027829810976982117
0.002906039822846651 0.06866868585348129 0.029111960902810097
0.0029321631882339716 0.07096042484045029 0.030389931052923203
0.002964876824989915 0.0731794536113739 0.03164403513073921
0.003001011675223708 0.07533629983663559 0.03285171836614609
0.003037509974092245 0.0774388536810875 0.03399602696299553
0.0030718371272087097 0.07949183136224747 0.035066887736320496
0.003102224553003907 0.08149690181016922 0.03606068342924118
0.0031277663074433804 0.08345308899879456 0.03697952255606651
0.0031484069768339396 0.0853571817278862 0.03783031180500984
0.0031648471485823393 0.08720424026250839 0.038623612374067307
0.0031782679725438356 0.08898874372243881 0.03937127813696861
0.0031899327877908945 0.09070605039596558 0.040083255618810654
0.0032009012065827847 0.09235335886478424 0.04076556861400604
0.003211877541616559 0.09393004328012466 0.04141955077648163
0.003223159583285451 0.09543760120868683 0.04204199090600014
0.003234656061977148 0.09687928110361099 0.04262590408325195
0.0032459525391459465 0.0982595905661583 0.04316166043281555
0.0032564047724008556 0.09958325326442719 0.04363910108804703
0.0032652423251420264 0.10085289925336838 0.044052593410015106
0.003271671943366527 0.10206709802150726 0.04440521448850632
0.0032749734818935394 0.10322015732526779 0.044709160923957825
0.0032745779026299715 0.10430317372083664 0.044983524829149246
0.0032701271120458846 0.10530538856983183 0.04525138810276985
0.0032615121454000473 0.10621377080678938 0.0455406978726387
0.0032488894648849964 0.10701248049736023 0.04588540270924568
0.003232676535844803 0.10768541693687439 0.04632003977894783
0.0032135276123881336 0.10822022706270219 0.0468711219727993
0.003192296950146556 0.10861197113990784 0.04754921421408653
0.0031699857208877806 0.10886550694704057 0.048343904316425323
0.003147683572024107 0.10899600386619568 0.0492226779460907
0.0031265048310160637 0.10902763158082962 0.05013367906212807

CELLS 50 150
2 0 1
2 1 2
2 2 3
2 3 4
2 4 5
2 5 6
2 6 7
2 7 8
2 8 9
2 9 10
2 10 11
2 11 12
2 12 13
2 13 14
2 14 15
2 15 16
2 16 17
2 17 18
2 18 19
2 19 20
2 20 21
2 21 22
2 22 23
2 23 24
2 24 25
2 25 26
2 26 27
2 27 28
2 28 29
2 29 30
2 30 31
2 31 32
2 32 33
2 33 34
2 34 35
2 35 36
2 36 37
2 37 38
2 38 39
2 39 40
2 40 41
2 41 42
2 42 43
2 43 44
2 44 45
2 45 46
2 46 47
2 47 48
2 48 49
2 49 50

CELL_TYPES 50
4
4
4
4
4
4
4
4
4
4
4
4
4
4
4
4
4
4
4
4
4
4
4
4
4
4
4
4
4
4
4
4
4
4
4
4
4
4
4
4
4
4
4
4
4
4
4
4
4
4

POINT_DATA 51

SCALARS zone float
LOOKUP_TABLE default
1.0
1.0
1.0
1.0
1.0
1.0
1.0
1.0
1.0
1.0
1.0
1.0
1.0
1.0
1.0
1.0
1.0
1.0
1.0
1.0
1.0
1.0
1.0
1.0
1.0
1.0
1.0
1.0
1.0
1.0
1.0
1.0
1.0
1.0
1.0
1.0
1.0
1.0
1.0
1.0
1.0
1.0
1.0
1.0
1.0
1.0
1.0
1.0
1.0
1.0
1.0

VECTORS normals float
-0.00011546154564712197 0.001866035396233201 0.0008924394496716559
-0.00022074757725931704 0.0037728084716945882 0.0016076237661764026
-0.0002789688587654382 0.0038020086940377955 0.0013652179623022676
-0.00040420211735181516 0.0037752194330096245 0.0012428822228685021
-0.00044531151070259506 0.003701865207403898 0.001220405101776123
-0.0003278949297964573 0.0035134162753820415 0.00144474976696074
-9.220571519108489e-5 0.0033003690186887984 0.0017218452412635086
0.00013812060933560133 0.003208806971088052 0.0017384148668497799
0.0002748481638263911 0.0031357654370367527 0.0017152675427496433
0.0003148686664644629 0.0030293732415884733 0.0017636406701058152
0.00028992604347877204 0.002973811235278845 0.0017030078452080488
0.00022987906413618475 0.0029306584037840366 0.0016157639911398292
0.00015821750275790691 0.0028533118311315775 0.0016018485184758902
9.200429485645145e-5 0.002760585630312562 0.0016209146706387403
4.130187880946323e-5 0.002682857448235154 0.0016078178305178879
9.696207598608453e-6 0.0026295126881450415 0.0015424303710460663
-4.217552486807108e-6 0.00259114196524024 0.0014449311420321465
-5.062076070316834e-6 0.002549227559939027 0.0013550309231504798
1.7121039945777738e-6 0.0024903733283281326 0.0013014585711061954
1.1616368283284828e-5 0.0024147427175194025 0.0012838630937039852
2.149965257558506e-5 0.0023326806258410215 0.0012800602708011866
2.9418395570246506e-5 0.0022553843446075916 0.0012660373467952013
3.442417073529214e-5 0.002187936333939433 0.0012308942386880517
3.63165709131863e-5 0.0021297007333487272 0.0011759953340515494
3.5412773286225274e-5 0.0020777659956365824 0.0011075837537646294
3.2357384043280035e-5 0.002029022667557001 0.001032328582368791
2.7964591936324723e-5 0.0019806320779025555 0.0009563171770423652
2.309120463905856e-5 0.0019301391439512372 0.0008848136640153824
1.854042238846887e-5 0.0018755728378891945 0.0008220458985306324
1.493051149736857e-5 0.0018157814629375935 0.0007704832823947072
1.2542826880235225e-5 0.0017509073950350287 0.0007298205746337771
1.1316546078887768e-5 0.0016823088517412543 0.0006971448892727494
1.0972400559694506e-5 0.001611995045095682 0.0006681476952508092
1.1129222002637107e-5 0.0015421188436448574 0.000638212077319622
1.1389166502340231e-5 0.0014746205415576696 0.000603176886215806
1.1396474292268977e-5 0.0014109958428889513 0.0005598347634077072
1.0874458894249983e-5 0.0013519846834242344 0.0005065991426818073
9.644884812587406e-6 0.0012966563226655126 0.00044546535355038935
7.633578206878155e-6 0.001241922378540039 0.00038305699126794934
4.865619757765671e-6 0.001183627638965845 0.0003282848629169166
1.4529367717841524e-6 0.0011180387809872627 0.0002891550539061427
-2.4232347186625702e-6 0.0010426160879433155 0.0002711137931328267
-6.532860879815417e-6 0.0009552962728776039 0.0002785860560834408
-1.0618759006320033e-5 0.0008535448578186333 0.00031700709951110184
-1.4417873899219556e-5 0.0007358256261795759 0.00038967106956988573
-1.7680962628219277e-5 0.000603872409556061 0.0004928599810227752
-2.018977284024004e-5 0.00046327486052177846 0.0006145867519080639
-2.1771005776827224e-5 0.00032264189212583005 0.0007363894255831838
-2.2306650862446986e-5 0.00019201613031327724 0.0008367316331714392
-2.1740446754847653e-5 8.10615747468546e-5 0.0008948887698352337
-1.058942416420905e-5 1.5814861399121583e-5 0.00045550146023742855

CELL_DATA 50

VECTORS liftinglineloading               float
0.15377411246299744 -0.062280002981424325 0.10787212848663331
0.2349930554628372 -0.10858996212482452 0.18808333575725555
-0.08333934098482132 -0.0261248629540205 0.045249588787555695
0.11446228623390198 -0.03475894778966904 0.06020426005125045
0.18860800564289093 -0.053218353539705276 0.0921768918633461
-0.47557494044303894 -0.19317296147346497 0.33458536863327026
-1.645068049430847 -0.43931984901428217 0.7609242796897888
-3.3018758296966553 -0.7275938987731934 1.2602295875549316
-5.244602680206299 -1.014806866645813 1.7576969861984255
-7.423173427581787 -1.310709834098816 2.2702159881591797
-9.576559066772461 -1.5729701519012451 2.724464178085327
-11.479002952575684 -1.7839738130569458 3.089933395385742
-12.910033226013184 -1.9032789468765259 3.296575784683227
-13.856622695922852 -1.9819751977920532 3.4328818321228027
-14.578100204467773 -2.0101566314697266 3.481693267822265
-15.110651016235353 -2.0092406272888184 3.4801068305969234
-15.234558105468748 -1.9448878765106201 3.3686447143554688
-15.211669921874998 -1.893210530281067 3.279136896133423
-15.92204475402832 -1.8886921405792236 3.2713108062744145
-15.871489524841309 -1.8186296224594114 3.149958848953247
-15.91528606414795 -1.7760361433029175 3.0761847496032715
-15.767219543457033 -1.6884186267852783 2.924426794052124
-16.1228084564209 -1.7225307226181028 2.983510732650757
-15.880621910095215 -1.652039885520935 2.861417055130005
-16.717679977416992 -1.6606078147888181 2.8762571811676025
-17.935848236083984 -1.6189748048782349 2.8041467666625977
-18.43878746032715 -1.5927107334136963 2.7586560249328613
-19.966161727905273 -1.6846191883087158 2.9178459644317627
-21.433900833129883 -1.692593336105347 2.931657552719116
-22.537933349609375 -1.6651047468185427 2.8840460777282715
-23.525375366210938 -1.586413025856018 2.7477478981018066
-24.305160522460938 -1.4846327304840088 2.5714592933654785
-24.854415893554688 -1.4530844688415527 2.5168161392211914
-25.169086456298828 -1.3287739753723145 2.301504135131836
-25.18579864501953 -1.2679492235183716 2.196152448654175
-24.951650619506836 -1.185874104499817 2.0539941787719727
-24.479169845581055 -1.0680534839630127 1.8499230146408083
-23.552919387817383 -0.9977405667304993 1.7281373739242554
-22.55274200439453 -0.9469041228294373 1.640086054801941
-21.5430908203125 -0.8675364255905151 1.5026171207427979
-20.535659790039062 -0.8191229701042176 1.4187625646591187
-18.50967788696289 -0.7896087765693665 1.3676425218582153
-15.463010787963869 -0.8181912899017334 1.4171489477157593
-12.962732315063477 -0.7976928353309631 1.381644606590271
-10.457826614379883 -0.8998892307281494 1.5586538314819336
-8.844388008117676 -0.926874041557312 1.6053929328918457
-7.0277929306030265 -0.913713812828064 1.5825986862182617
-5.385951995849609 -0.9058500528335572 1.5689783096313477
-3.554731130599975 -0.8839740753173829 1.5310879945755005
-1.9160072803497314 -0.857193946838379 1.4847034215927124