# vtk DataFile Version 4.0
 
ASCII
DATASET UNSTRUCTURED_GRID
POINTS 51 float
0.0032294827979058027 -0.0032148731406778097 -0.006903131026774645
0.0029985597357153893 -0.0024567435029894114 -0.010969995521008968
0.0027879877015948296 -0.0020621318835765123 -0.015023804269731047
0.0024406220763921738 -0.0017874095356091855 -0.019021600484848022
0.001979583641514182 -0.0016152652679011224 -0.022960331290960312
0.0015499991131946445 -0.0013459944166243076 -0.02680478431284428
0.0013237936655059457 -0.0006429009954445064 -0.03049558773636818
0.00136558769736439 0.00027195835718885064 -0.0340718999505043
0.0016000348841771481 0.0010544579708948731 -0.037594396620988846
0.0019152839668095112 0.001962409121915698 -0.041017621755599976
0.002229772275313735 0.002893431345000863 -0.04435962438583374
0.002495136111974716 0.003713009646162391 -0.04764412343502045
0.002689530374482274 0.004497827030718327 -0.05085760354995727
0.00281157111749053 0.005330560728907585 -0.05398547649383545
0.0028735389932990074 0.0062002092599868774 -0.057029690593481064
0.00289417477324605 0.0070478771813213825 -0.06000062823295593
0.0028929314576089382 0.00781881995499134 -0.06290794163942337
0.0028857397846877575 0.00849799532443285 -0.06575427949428558
0.002882807282730937 0.009116961620748043 -0.06853408366441727
0.002889164024963975 0.009723108261823654 -0.07123899459838867
0.002906039822846651 0.010347232222557068 -0.07386358827352524
0.0029321631882339716 0.010988510213792324 -0.07640799880027771
0.002964876824989915 0.011625555343925953 -0.07887600362300873
0.003001011675223708 0.012233857065439224 -0.08127192407846451
0.003037509974092245 0.012794990092515945 -0.08359900861978531
0.0030718371272087097 0.013298013247549532 -0.08585918694734573
0.003102224553003907 0.013738996349275112 -0.0880531519651413
0.0031277663074433804 0.01412022579461336 -0.09018050134181976
0.0031484069768339396 0.014449210837483406 -0.09223990887403488
0.0031648471485823393 0.014737428165972231 -0.09422935545444489
0.0031782679725438356 0.014997753314673899 -0.09614656120538712
0.0031899327877908945 0.015240997076034546 -0.09798962622880936
0.0032009012065827847 0.015473706647753716 -0.09975740313529968
0.003211877541616559 0.015697328373789787 -0.10144962370395659
0.003223159583285451 0.01590837724506855 -0.10306690633296968
0.003234656061977148 0.01609925739467144 -0.1046105995774269
0.0032459525391459465 0.016259510070085526 -0.10608253628015518
0.0032564047724008556 0.016378093510866165 -0.10748466849327089
0.0032652423251420264 0.016448885202407837 -0.10881807655096055
0.003271671943366527 0.016475236043334007 -0.11008216440677641
0.0032749734818935394 0.016470391303300858 -0.1112746000289917
0.0032745779026299715 0.01645510084927082 -0.11239172518253325
0.0032701271120458846 0.01645444519817829 -0.11342911422252655
0.0032615121454000473 0.016498791053891182 -0.11438142508268356
0.0032488894648849964 0.01662502810359001 -0.1152421310544014
0.003232676535844803 0.016870686784386635 -0.11600463837385178
0.0032135276123881336 0.01726457290351391 -0.1166638508439064
0.003192296950146556 0.017818167805671692 -0.11721774935722352
0.0031699857208877806 0.018520157784223557 -0.11766833066940306
0.003147683572024107 0.01933521404862404 -0.11802181601524353
0.0031265048310160637 0.020206989720463753 -0.11828815937042236

CELLS 50 150
2 0 1
2 1 2
2 2 3
2 3 4
2 4 5
2 5 6
2 6 7
2 7 8
2 8 9
2 9 10
2 10 11
2 11 12
2 12 13
2 13 14
2 14 15
2 15 16
2 16 17
2 17 18
2 18 19
2 19 20
2 20 21
2 21 22
2 22 23
2 23 24
2 24 25
2 25 26
2 26 27
2 27 28
2 28 29
2 29 30
2 30 31
2 31 32
2 32 33
2 33 34
2 34 35
2 35 36
2 36 37
2 37 38
2 38 39
2 39 40
2 40 41
2 41 42
2 42 43
2 43 44
2 44 45
2 45 46
2 46 47
2 47 48
2 48 49
2 49 50

CELL_TYPES 50
4
4
4
4
4
4
4
4
4
4
4
4
4
4
4
4
4
4
4
4
4
4
4
4
4
4
4
4
4
4
4
4
4
4
4
4
4
4
4
4
4
4
4
4
4
4
4
4
4
4

POINT_DATA 51

SCALARS zone float
LOOKUP_TABLE default
1.0
1.0
1.0
1.0
1.0
1.0
1.0
1.0
1.0
1.0
1.0
1.0
1.0
1.0
1.0
1.0
1.0
1.0
1.0
1.0
1.0
1.0
1.0
1.0
1.0
1.0
1.0
1.0
1.0
1.0
1.0
1.0
1.0
1.0
1.0
1.0
1.0
1.0
1.0
1.0
1.0
1.0
1.0
1.0
1.0
1.0
1.0
1.0
1.0
1.0
1.0

VECTORS normals float
-0.00011546154564712197 0.0003790648188441992 -0.002033432014286518
-0.00022074757725931704 0.0005763706285506487 -0.004060336854308844
-0.0002789688587654382 0.0003346670127939433 -0.004025802947580814
-0.00040420211735181516 0.00022343338059727103 -0.0039682635106146336
-0.00044531151070259506 0.0002207075740443543 -0.00389159144833684
-0.0003278949297964573 0.0004861821362283081 -0.0037676282227039333
-9.220571519108489e-5 0.0008089763578027487 -0.0036335580516606574
0.00013812060933560133 0.0008486795122735202 -0.0035494044423103333
0.0002748481638263911 0.0008452254114672542 -0.0034728606697171926
0.0003148686664644629 0.0009194866288453339 -0.0033826136495918036
0.00028992604347877204 0.0008753003203310074 -0.0033132520038634534
0.00022987906413618475 0.0008021979592740536 -0.0032489891164004803
0.00015821750275790691 0.0008087754249572754 -0.0031706765294075017
9.200429485645145e-5 0.0008511911146342754 -0.0030860446859151125
4.130187880946323e-5 0.0008586581679992378 -0.0030075751710683107
9.696207598608453e-6 0.0008093052892945707 -0.0029391245916485786
-4.217552486807108e-6 0.0007250594208016992 -0.0028768265619874
-5.062076070316834e-6 0.0006490707746706903 -0.002813072642311454
1.7121039945777738e-6 0.0006125563522800803 -0.002742358250543475
1.1616368283284828e-5 0.0006151351262815297 -0.00266475067473948
2.149965257558506e-5 0.0006327010923996568 -0.0025845004711300135
2.9418395570246506e-5 0.0006391617935150862 -0.002506208373233676
3.442417073529214e-5 0.0006226730183698237 -0.0024319631047546864
3.63165709131863e-5 0.0005847171414643526 -0.0023615029640495777
3.5412773286225274e-5 0.0005320783238857985 -0.0022936316672712564
3.2357384043280035e-5 0.0004720030701719224 -0.0022270716726779938
2.7964591936324723e-5 0.00041110615711659193 -0.0021606567315757275
2.309120463905856e-5 0.0003551076224539429 -0.0020933779887855053
1.854042238846887e-5 0.00030860138940624893 -0.0020244254264980555
1.493051149736857e-5 0.0002742708893492818 -0.0019533259328454733
1.2542826880235225e-5 0.0002517843386158347 -0.001880138064734638
1.1316546078887768e-5 0.00023797665198799223 -0.0018054199172183871
1.0972400559694506e-5 0.00022816608543507755 -0.0017299969913437965
1.1129222002637107e-5 0.0002173358079744503 -0.0016547538107261062
1.1389166502340231e-5 0.0002009642630582675 -0.0015804877039045095
1.1396474292268977e-5 0.0001755662524374202 -0.0015078132273629308
1.0874458894249983e-5 0.00013941781071480364 -0.00143703434150666
9.644884812587406e-6 9.468714415561408e-5 -0.0013677687384188175
7.633578206878155e-6 4.857146632275544e-5 -0.001298747374676168
4.865619757765671e-6 1.0753460628620815e-5 -0.0012282629031687975
1.4529367717841524e-6 -1.0067384209833108e-5 -0.0011547813192009926
-2.4232347186625702e-6 -7.973097126523498e-6 -0.0010772591922432184
-6.532860879815417e-6 2.184459299314767e-5 -0.0009948487859219313
-1.0618759006320033e-5 8.529167098458856e-5 -0.0009065084741450846
-1.4417873899219556e-5 0.00018594766152091324 -0.0008116072858683765
-1.7680962628219277e-5 0.0003197725163772702 -0.000710857508238405
-2.018977284024004e-5 0.00047374083078466356 -0.0006065558991394937
-2.1771005776827224e-5 0.0006277917418628931 -0.000502239738125354
-2.2306650862446986e-5 0.0007585232378914952 -0.0004020354244858026
-2.1740446754847653e-5 0.0008434159099124372 -0.00030991373932920396
-1.058942416420905e-5 0.00043588742846623063 -0.00013316843251232058

CELL_DATA 50

VECTORS liftinglineloading               float
0.12854377925395966 0.10499018430709839 0.028132034465670586
0.19046442210674286 0.17687757313251495 0.047394201159477234
-0.06859265267848969 0.04903585836291313 0.013139118440449236
0.14960859715938568 0.07164524495601654 0.019197285175323486
0.0741795226931572 0.14162397384643555 0.03794802725315094
-0.6301628351211548 0.424755185842514 0.11381280422210693
-1.7768049240112307 0.8764038681983948 0.23483170568943026
-3.3841001987457275 1.4014800786972046 0.37552544474601746
-5.256597518920898 1.9358117580413818 0.5186991691589355
-7.382328510284424 2.49656081199646 0.6689514517784119
-9.477903366088867 2.996588706970215 0.8029335737228394
-11.327143669128418 3.4010879993438716 0.9113187789916993
-12.537368774414062 3.6149711608886723 0.9686286449432373
-13.492309570312498 3.7735514640808105 1.011120080947876
-14.205930709838865 3.8292856216430664 1.02605402469635
-14.726115226745605 3.8316955566406254 1.0266997814178467
-14.827860832214355 3.7011873722076416 0.9917302131652832
-14.770004272460938 3.6038420200347905 0.9656465649604797
-15.418281555175781 3.592927455902099 0.9627220034599304
-15.306346893310547 3.456634998321533 0.9262025356292725
-15.257526397705076 3.36956787109375 0.9028730392456055
-15.226634979248047 3.21797251701355 0.8622531294822693
-15.536787033081053 3.288367986679077 0.8811155557632445
-15.255253791809082 3.152364492416382 0.8446735739707947
-16.06700325012207 3.174633264541626 0.8506404161453246
-17.27659797668457 3.098148822784424 0.8301464915275573
-17.693504333496094 3.0437302589416504 0.8155650496482848
-19.219722747802734 3.2362353801727295 0.8671466708183287
-21.653545379638672 3.290513038635254 0.8816903233528137
-22.736343383789062 3.2347214221954346 0.8667410016059875
-23.68866729736328 3.080331802368164 0.8253723978996276
-24.43246078491211 2.8814151287078857 0.7720729112625122
-24.946563720703125 2.8195760250091553 0.7555031776428223
-25.22914695739746 2.5790481567382812 0.6910538673400879
-25.21596336364746 2.4615180492401123 0.6595617532730103
-25.208480834960938 2.2957332134246826 0.615139901638031
-24.645463943481445 2.070131540298462 0.5546900629997253
-23.652511596679688 1.9350395202636717 0.5184922814369202
-22.609811782836914 1.8371866941452024 0.49227267503738403
-21.5745906829834 1.6840720176696775 0.45124572515487665
-20.55193519592285 1.5900729894638062 0.4260587692260742
-18.51904296875 1.532357096672058 0.4105938374996185
-15.466593742370605 1.586456298828125 0.4250896871089935
-12.967032432556152 1.5462619066238403 0.41431963443756104
-10.463712692260742 1.7432339191436768 0.4670981168746948
-8.851218223571777 1.7956663370132449 0.4811473488807678
-6.971285820007324 1.764780879020691 0.4728716313838959
-5.333983898162842 1.749308466911316 0.46872580051422114
-3.5161399841308594 1.706628680229187 0.45728978514671326
-1.8925940990447998 1.6546009778976443 0.4433490037918091