# vtk DataFile Version 4.0
 
ASCII
DATASET UNSTRUCTURED_GRID
POINTS 51 float
0.0032922609243541956 0.003907923121005297 -0.006384529639035463
0.003229763358831405 0.007851281203329563 -0.007716302759945393
0.003138394095003605 0.011509877629578114 -0.009478960186243057
0.0028620881494134665 0.015005950815975666 -0.011410367675125599
0.0024306110572069883 0.018359273672103882 -0.01346811559051275
0.0019982317462563515 0.021663937717676163 -0.01545043010264635
0.0017444419208914044 0.025070494040846825 -0.01703444868326187
0.001740187988616526 0.028488084673881527 -0.018415017053484917
0.0019156732596457005 0.031772371381521225 -0.01990167237818241
0.00216366327367723 0.03503673896193504 -0.021251263096928596
0.002406609710305929 0.03823960945010185 -0.022552944719791412
0.0025995990727096796 0.04132533073425293 -0.023926064372062683
0.002723678248003125 0.04432864859700203 -0.02529611811041832
0.0027798479422926903 0.04728667810559273 -0.026583503931760788
0.002782244235277176 0.05019618198275566 -0.02779517136514187
0.0027508526109158993 0.053033240139484406 -0.02898240834474564
0.0027057079132646322 0.05577562004327775 -0.03019290417432785
0.0026627120096236467 0.05841801315546036 -0.03143803030252457
0.002631532493978739 0.060975003987550735 -0.03268652409315109
0.002616326557472348 0.063467837870121 -0.033892810344696045
0.002617395017296076 0.06591049581766129 -0.0350269116461277
0.002632583025842905 0.06830325722694397 -0.0360882468521595
0.0026584563311189413 0.07063741981983185 -0.03709544241428375
0.0026912044268101454 0.0729028508067131 -0.038070257753133774
0.0027272577863186598 0.0750918984413147 -0.039029091596603394
0.0027636769227683544 0.0772000327706337 -0.0399816632270813
0.0027983631007373333 0.07922562956809998 -0.040931444615125656
0.0028301344718784094 0.08116964995861053 -0.041876375675201416
0.002858696971088648 0.08303523063659668 -0.04280974715948105
0.002884538844227791 0.08482711017131805 -0.04372137784957886
0.002908645896241069 0.08655057847499847 -0.04459993913769722
0.0029320986941456795 0.08820995688438416 -0.04543614387512207
0.002955782227218151 0.08980768918991089 -0.046224769204854965
0.002980233170092106 0.0913439691066742 -0.046965401619672775
0.003005585866048932 0.09281681478023529 -0.04766227677464485
0.00303159118629992 0.09422244876623154 -0.04832351207733154
0.0030576810240745544 0.09555580466985703 -0.048959940671920776
0.003083063056692481 0.09681156277656555 -0.04958300665020943
0.0031068241223692894 0.09798646718263626 -0.050199683755636215
0.0031280354596674442 0.09908130764961243 -0.05080826580524445
0.00314584793522954 0.10010111331939697 -0.05139797180891037
0.0031595712061971426 0.1010541319847107 -0.051951128989458084
0.003168734721839428 0.10195045173168182 -0.052446071058511734
0.003173124277964235 0.10280247032642365 -0.05285625159740447
0.003172800177708268 0.10362537205219267 -0.05314908549189568
0.0031680921092629433 0.10443464666604994 -0.05329135060310364
0.0031595753971487284 0.10524207353591919 -0.0532577931880951
0.003148033283650875 0.10605202615261078 -0.053039029240608215
0.003134404309093952 0.10685914754867554 -0.05264656245708465
0.0031197243370115757 0.10764780640602112 -0.05211388692259788
0.003105060663074255 0.10839342325925828 -0.05149374902248383

CELLS 50 150
2 0 1
2 1 2
2 2 3
2 3 4
2 4 5
2 5 6
2 6 7
2 7 8
2 8 9
2 9 10
2 10 11
2 11 12
2 12 13
2 13 14
2 14 15
2 15 16
2 16 17
2 17 18
2 18 19
2 19 20
2 20 21
2 21 22
2 22 23
2 23 24
2 24 25
2 25 26
2 26 27
2 27 28
2 28 29
2 29 30
2 30 31
2 31 32
2 32 33
2 33 34
2 34 35
2 35 36
2 36 37
2 37 38
2 38 39
2 39 40
2 40 41
2 41 42
2 42 43
2 43 44
2 44 45
2 45 46
2 46 47
2 47 48
2 48 49
2 49 50

CELL_TYPES 50
4
4
4
4
4
4
4
4
4
4
4
4
4
4
4
4
4
4
4
4
4
4
4
4
4
4
4
4
4
4
4
4
4
4
4
4
4
4
4
4
4
4
4
4
4
4
4
4
4
4

POINT_DATA 51

SCALARS zone float
LOOKUP_TABLE default
1.0
1.0
1.0
1.0
1.0
1.0
1.0
1.0
1.0
1.0
1.0
1.0
1.0
1.0
1.0
1.0
1.0
1.0
1.0
1.0
1.0
1.0
1.0
1.0
1.0
1.0
1.0
1.0
1.0
1.0
1.0
1.0
1.0
1.0
1.0
1.0
1.0
1.0
1.0
1.0
1.0
1.0
1.0
1.0
1.0
1.0
1.0
1.0
1.0
1.0
1.0

VECTORS normals float
-3.124873182969168e-5 0.0019716788083314896 -0.0006658864440396428
-7.693334191571921e-5 0.0038009774871170525 -0.0015472153900191188
-0.0001838376629166305 0.0035773350391536955 -0.001847032574005425
-0.0003538915771059692 0.003424698254093528 -0.001994577469304204
-0.0004319281433708965 0.003328993450850248 -0.002020031213760376
-0.0003430845681577921 0.003355609718710184 -0.001783166779205203
-0.00012902190792374313 0.0034120737109333277 -0.0014822938246652484
8.561566210119054e-5 0.003350939135998488 -0.0014336116146296263
0.0002117376570822671 0.0032743262127041817 -0.00141812302172184
0.00024546831264160573 0.0032336181029677395 -0.001325635937973857
0.0002179679140681401 0.003144296817481518 -0.0013374002883210778
0.00015853419608902186 0.003044520039111376 -0.0013715868117287755
9.012437658384442e-5 0.0029806739185005426 -0.0013287195470184088
2.9283044568728656e-5 0.0029337669257074594 -0.0012495263945311308
-1.4497647498501465e-5 0.0028732814826071262 -0.0011994523229077458
-3.826815736829303e-5 0.0027897190302610397 -0.0011988666374236345
-4.407023516250774e-5 0.0026923862751573324 -0.0012278116773813963
-3.708776057465002e-5 0.002599692204967141 -0.0012468091445043683
-2.319276609341614e-5 0.0025249128229916096 -0.0012273886241018772
-7.068673312460305e-6 0.002467747312039137 -0.0011701948242262006
8.128289664455224e-6 0.0024177078157663345 -0.0010977190686389804
2.053066054941155e-5 0.0023634610697627068 -0.0010342658497393131
2.9310647732927464e-5 0.002299798186868429 -0.0009910057997331023
3.440070213400759e-5 0.0022272393107414246 -0.0009668233105912805
3.623620068538003e-5 0.002148590050637722 -0.0009557013981975615
3.555265357135795e-5 0.0020668639335781336 -0.000951178022660315
3.3228800020879135e-5 0.001984810223802924 -0.0009473566897213459
3.0166916985763237e-5 0.0019048011163249612 -0.0009391513885930181
2.720216980378609e-5 0.0018287296406924725 -0.0009225014946423471
2.4974500774987977e-5 0.001757674268446863 -0.0008950945339165628
2.3779994080541655e-5 0.0016914241714403035 -0.0008573827217333018
2.3568165488541126e-5 0.0016285571036860347 -0.0008124158484861254
2.406723433523439e-5 0.001567005179822445 -0.0007646288140676916
2.4901799406507052e-5 0.0015045616310089827 -0.0007187537848949432
2.5678929887362756e-5 0.0014392378507182002 -0.0006790554034523666
2.604758265078999e-5 0.001369495876133442 -0.0006488318904303014
2.573603342170827e-5 0.0012945595663040876 -0.0006297476938925683
2.45715600613039e-5 0.0012153295101597905 -0.0006198713090270758
2.2486185116576962e-5 0.0011348712723702192 -0.0006126289372332394
1.951184640347492e-5 0.001057323650456965 -0.0005991445505060256
1.5767878721817397e-5 0.0009864108869805932 -0.0005714319413527846
1.1443358744145371e-5 0.0009246703120879829 -0.0005240493919700384
6.776487680326682e-6 0.0008741703350096941 -0.000452561245765537
2.0328297978267074e-6 0.0008374575409106911 -0.00035150640178471804
-2.5160579752991907e-6 0.0008160870056599379 -0.00021754999761469662
-6.612403467443073e-6 0.0008083506836555898 -5.435492130345665e-5
-1.002946464723209e-5 0.0008086910238489509 0.00012616062304005027
-1.2585563126776831e-5 0.0008085374138318002 0.00030561682069674134
-1.4154468772176187e-5 0.0007978910580277442 0.0004625713336281478
-1.4671891221951226e-5 0.0007671371567994356 0.0005764050874859095
-7.331854249059689e-6 0.00037280606920830905 0.0003100686881225556

CELL_DATA 50

VECTORS liftinglineloading               float
0.11475361883640291 0.03567194566130638 0.09800786525011063
0.13699302077293396 0.05030185729265213 0.1382032185792923
-0.07762401551008224 0.010695994831621647 0.029387004673480988
0.24228663742542264 0.03037644363939762 0.08345859497785568
-0.049943868070840836 0.08079066127538681 0.2219705134630203
-1.013811707496643 0.2038753628730774 0.5601429343223572
-2.813103199005127 0.4124178290367126 1.1331087350845337
-4.65995454788208 0.6106352210044861 1.6777063608169556
-6.523670196533204 0.7858437299728394 2.159087896347046
-8.879164695739746 0.9683762788772583 2.6605918407440186
-11.292143821716309 1.1446162462234497 3.1448073387145996
-13.099039077758787 1.2432689666748047 3.415853261947632
-14.220817565917967 1.2851066589355469 3.5308015346527095
-15.005688667297363 1.3052713871002197 3.5862035751342773
-15.543195724487305 1.298696756362915 3.5681397914886475
-15.992824554443358 1.2872428894042969 3.5366706848144536
-16.092639923095703 1.2307391166687012 3.381427764892578
-16.12983512878418 1.181050419807434 3.2449092864990234
-16.15170669555664 1.1268787384033203 3.096074104309082
-15.742800712585451 1.0533720254898071 2.894115924835205
-15.609524726867676 1.0119199752807617 2.7802271842956543
-15.471175193786621 0.9693820476531982 2.6633553504943848
-15.563484191894531 0.9261740446090698 2.544642448425293
-15.749577522277832 0.9122235774993898 2.5063138008117676
-16.002826690673828 0.8734751343727111 2.399853229522705
-16.34541130065918 0.8496517539024354 2.3343989849090576
-16.89693260192871 0.8369393348693848 2.299471855163574
-17.203840255737305 0.8147103190422058 2.2383980751037598
-17.608613967895508 0.788529098033905 2.1664657592773438
-18.549869537353516 0.7704190611839294 2.116708993911743
-18.809226989746094 0.7327395677566528 2.013185501098633
-19.008882522583008 0.6926161050796509 1.9029470682144165
-19.115964889526367 0.648903489112854 1.7828476428985596
-19.355058670043945 0.5921874642372131 1.6270216703414915
-19.176244735717773 0.5659984350204468 1.5550678968429565
-18.919767379760742 0.5270003080368042 1.4479213953018188
-18.58324432373047 0.4965152442455292 1.3641644716262817
-17.849342346191406 0.46980154514312744 1.2907692193984985
-17.222902297973633 0.4576633870601654 1.2574198246002197
-16.54645538330078 0.4416966438293457 1.2135515213012695
-15.851229667663574 0.4254547953605652 1.1689274311065674
-14.434568405151369 0.39800044894218445 1.0934971570968628
-12.794609069824219 0.39506012201309204 1.085418701171875
-10.83743667602539 0.426678717136383 1.1722902059555054
-9.168350219726562 0.48643016815185547 1.3364559412002563
-7.561067581176758 0.5231407880783081 1.4373176097869873
-6.218149185180664 0.5306419730186462 1.4579267501831055
-4.805421829223633 0.5215497612953186 1.4329462051391602
-3.4007999897003174 0.5191720128059387 1.4264132976531982
-1.965053915977478 0.5326207280158997 1.4633634090423584