# vtk DataFile Version 4.0
 
ASCII
DATASET UNSTRUCTURED_GRID
POINTS 51 float
0.0032922609243541956 -0.0011102537391707301 -0.007402798160910606
0.003229763358831405 0.001054486376233399 -0.010957736521959305
0.003138394095003605 0.002724119694903493 -0.014659712091088293
0.0028620881494134665 0.0041607823222875595 -0.018386488780379295
0.0024306110572069883 0.005406882148236036 -0.02211828902363777
0.0019982317462563515 0.0066641937009990215 -0.025761026889085773
0.0017444419208914044 0.008255579508841038 -0.02916414849460125
0.001740187988616526 0.009986193850636482 -0.03241851180791855
0.0019156732596457005 0.011546500958502293 -0.035668451339006424
0.00216366327367723 0.01317964866757393 -0.038800593465566635
0.002406609710305929 0.014796486124396322 -0.04185650497674942
0.0025995990727096796 0.01627766154706478 -0.0448918379843235
0.002723678248003125 0.017697684466838837 -0.04787185788154602
0.0027798479422926903 0.019136151298880577 -0.0507594384253025
0.002782244235277176 0.02058611437678337 -0.05355782061815262
0.0027508526109158993 0.021996287629008293 -0.05629092454910278
0.0027057079132646322 0.023318979889154434 -0.058980982750654214
0.0026627120096236467 0.02454281784594059 -0.06163330376148224
0.002631532493978739 0.02569907158613205 -0.06423330307006836
0.002616326557472348 0.026833308860659596 -0.06675974279642105
0.002617395017296076 0.02797550708055496 -0.0691986232995987
0.002632583025842905 0.029126251116395 -0.07154969125986099
0.0026584563311189413 0.030266912654042244 -0.07382161915302277
0.0026912044268101454 0.03137573227286339 -0.07602456212043762
0.0027272577863186598 0.0324363186955452 -0.07816615700721741
0.0027636769227683544 0.03343893960118294 -0.08025095611810684
0.0027983631007373333 0.03438012674450874 -0.08228056132793427
0.0028301344718784094 0.03526194766163826 -0.08425401151180267
0.002858696971088648 0.03609110042452812 -0.08616818487644196
0.002884538844227791 0.03687777742743492 -0.08801833540201187
0.002908645896241069 0.03763330355286598 -0.0897991731762886
0.0029320986941456795 0.03836695849895477 -0.09150637686252594
0.002955782227218151 0.03908397629857063 -0.09313750267028809
0.002980233170092106 0.039784763008356094 -0.09469235688447952
0.003005585866048932 0.040465082973241806 -0.09617292135953903
0.00303159118629992 0.041116826236248016 -0.09758298099040985
0.0030576810240745544 0.0417291522026062 -0.0989275798201561
0.003083063056692481 0.042290616780519485 -0.10021205991506577
0.0031068241223692894 0.042794253677129745 -0.10143967717885971
0.0031280354596674442 0.04324176162481308 -0.10260962694883347
0.00314584793522954 0.04364392161369324 -0.1037168875336647
0.0031595712061971426 0.04401841014623642 -0.10475321859121321
0.003168734721839428 0.04438689351081848 -0.10570850968360901
0.003173124277964235 0.04477591812610626 -0.10657039284706117
0.003172800177708268 0.04521806538105011 -0.10732366144657135
0.0031680921092629433 0.04574655741453171 -0.10795284062623976
0.0031595753971487284 0.04638665169477463 -0.1084461361169815
0.003148033283650875 0.047147732228040695 -0.10879918187856674
0.003134404309093952 0.04801829904317856 -0.10901734232902527
0.0031197243370115757 0.04896484315395355 -0.10911623388528822
0.003105060663074255 0.04993463307619095 -0.10912045091390608

CELLS 50 150
2 0 1
2 1 2
2 2 3
2 3 4
2 4 5
2 5 6
2 6 7
2 7 8
2 8 9
2 9 10
2 10 11
2 11 12
2 12 13
2 13 14
2 14 15
2 15 16
2 16 17
2 17 18
2 18 19
2 19 20
2 20 21
2 21 22
2 22 23
2 23 24
2 24 25
2 25 26
2 26 27
2 27 28
2 28 29
2 29 30
2 30 31
2 31 32
2 32 33
2 33 34
2 34 35
2 35 36
2 36 37
2 37 38
2 38 39
2 39 40
2 40 41
2 41 42
2 42 43
2 43 44
2 44 45
2 45 46
2 46 47
2 47 48
2 48 49
2 49 50

CELL_TYPES 50
4
4
4
4
4
4
4
4
4
4
4
4
4
4
4
4
4
4
4
4
4
4
4
4
4
4
4
4
4
4
4
4
4
4
4
4
4
4
4
4
4
4
4
4
4
4
4
4
4
4

POINT_DATA 51

SCALARS zone float
LOOKUP_TABLE default
1.0
1.0
1.0
1.0
1.0
1.0
1.0
1.0
1.0
1.0
1.0
1.0
1.0
1.0
1.0
1.0
1.0
1.0
1.0
1.0
1.0
1.0
1.0
1.0
1.0
1.0
1.0
1.0
1.0
1.0
1.0
1.0
1.0
1.0
1.0
1.0
1.0
1.0
1.0
1.0
1.0
1.0
1.0
1.0
1.0
1.0
1.0
1.0
1.0
1.0
1.0

VECTORS normals float
-3.124873182969168e-5 0.0010823700577020645 -0.001777469296939671
-7.693334191571921e-5 0.0019171866588294506 -0.0036284569650888443
-0.0001838376629166305 0.0015531479148194194 -0.003714375663548708
-0.0003538915771059692 0.0013413813430815935 -0.0037292884662747387
-0.0004319281433708965 0.0012517059221863747 -0.003687269520014525
-0.0003430845681577921 0.0014243486803025007 -0.0035229292698204517
-0.00012902190792374313 0.0016609999584034085 -0.0033287415280938144
8.561566210119054e-5 0.0016454604919999838 -0.0032521523535251617
0.0002117376570822671 0.0015967274084687233 -0.0031910415273159742
0.00024546831264160573 0.0016249928157776594 -0.00309402565471828
0.0002179679140681401 0.0015490067889913917 -0.003045623190701008
0.00015853419608902186 0.0014505985891446471 -0.0030076762195676565
9.012437658384442e-5 0.001429244177415967 -0.0029337985906749964
2.9283044568728656e-5 0.00144421576987952 -0.0028429818339645863
-1.4497647498501465e-5 0.001430068165063858 -0.002765743527561426
-3.826815736829303e-5 0.0013664321741089225 -0.0027115819975733757
-4.407023516250774e-5 0.0012732654577121139 -0.0026711910031735897
-3.708776057465002e-5 0.0011900464305654168 -0.002626161091029644
-2.319276609341614e-5 0.0011452451581135392 -0.002563216956332326
-7.068673312460305e-6 0.001138217281550169 -0.0024826584849506617
8.128289664455224e-6 0.0011464713606983423 -0.0023949742317199707
2.053066054941155e-5 0.0011457030195742846 -0.0023114969953894615
2.9310647732927464e-5 0.0011247412767261267 -0.0022374363616108894
3.440070213400759e-5 0.0010847022058442235 -0.002172271255403757
3.623620068538003e-5 0.0010316023835912347 -0.0021131967660039663
3.555265357135795e-5 0.0009719040826894342 -0.0020571991335600615
3.3228800020879135e-5 0.0009115037973970174 -0.002001528861001134
3.0166916985763237e-5 0.0008554874220862985 -0.0019438142189756038
2.720216980378609e-5 0.0008079156395979225 -0.0018821619451045988
2.4974500774987977e-5 0.00077110092388466 -0.0018154934514313936
2.3779994080541655e-5 0.000744591117836535 -0.00174401979893446
2.3568165488541126e-5 0.0007253363146446645 -0.0016691630007699134
2.406723433523439e-5 0.0007089016726240516 -0.0015929911751300097
2.4901799406507052e-5 0.000690555025357753 -0.0015177108580246568
2.5678929887362756e-5 0.0006660317303612828 -0.001445310888811946
2.604758265078999e-5 0.0006320335669443011 -0.001377328997477889
2.573603342170827e-5 0.0005868960870429873 -0.00131454155780375
2.45715600613039e-5 0.0005325507954694331 -0.001256047748029232
2.2486185116576962e-5 0.0004755715490318835 -0.0011987821198999882
1.951184640347492e-5 0.0004248342593200504 -0.0011386058758944273
1.5767878721817397e-5 0.000388325221138075 -0.0010717948898673058
1.1443358744145371e-5 0.00037148609408177435 -0.0009958117734640837
6.776487680326682e-6 0.0003787525638472289 -0.0009085878846235573
2.0328297978267074e-6 0.000415585731389001 -0.0008075768710114062
-2.5160579752991907e-6 0.00048532045911997557 -0.0006912235985510051
-6.612403467443073e-6 0.0005842938553541899 -0.0005612361128441989
-1.002946464723209e-5 0.0007005877560004592 -0.0004231719358358532
-1.2585563126776831e-5 0.0008158222772181035 -0.00028560173814184964
-1.4154468772176187e-5 0.000908555171918124 -0.00015852428623475134
-1.4671891221951226e-5 0.0009581671911291779 -5.155435792403296e-5
-7.331854249059689e-6 0.0004848943499382586 -2.1087334971525706e-6

CELL_DATA 50

VECTORS liftinglineloading               float
0.08366279304027557 0.07617313414812088 0.043978579342365265
0.008816665038466454 0.025437450036406517 0.014686319045722483
0.06626349687576294 0.0678027868270874 0.039145953953266144
0.1450810730457306 0.12826380133628845 0.07405314594507217
-0.2720121145248413 0.2787330150604248 0.16092658042907715
-1.4690654277801514 0.6500614285469055 0.3753131330013275
-3.214712619781494 1.150542140007019 0.6642658114433289
-4.994890213012695 1.6290823221206665 0.9405511021614074
-6.7756853103637695 2.0605292320251465 1.1896470785140991
-9.036589622497559 2.5234787464141846 1.456931233406067
-11.309460639953613 2.967282295227051 1.7131613492965696
-12.930337905883789 3.2210631370544434 1.8596817255020142
-13.77494239807129 3.321483612060547 1.9176594018936157
-14.579466819763184 3.376704454421997 1.9495412111282349
-15.110239028930662 3.349673271179199 1.9339348077774048
-15.454193115234373 3.3016531467437744 1.9062103033065796
-15.490586280822754 3.1290886402130127 1.806580185890198
-15.426421165466309 2.9898793697357178 1.7262077331542969
-15.390677452087402 2.859905958175659 1.6511673927307131
-14.811443328857422 2.6545815467834473 1.5326234102249146
-14.538755416870117 2.5400731563568115 1.466511845588684
-14.58172035217285 2.46557879447937 1.4235025644302368
-14.337668418884276 2.3091533184051514 1.3331902027130127
-14.540173530578612 2.286160945892334 1.3199156522750854
-14.868128776550295 2.2016820907592773 1.271141767501831
-15.160288810729982 2.1456785202026367 1.238808035850525
-15.240777969360352 2.084629535675049 1.2035614252090454
-15.728725433349608 2.064951181411743 1.1922000646591187
-16.08034896850586 1.9999861717224123 1.154692530632019
-16.989381790161133 1.97076678276062 1.1378227472305298
-17.36568832397461 1.8932240009307861 1.0930533409118652
-18.02898597717285 1.7971545457839964 1.0375876426696777
-18.199281692504883 1.6913114786148074 0.976479172706604
-18.426008224487305 1.549599289894104 0.894661545753479
-19.229284286499023 1.450281023979187 0.83732008934021
-18.976192474365234 1.3489443063735962 0.778813362121582
-18.62909698486328 1.2698519229888916 0.7331494092941284
-17.886545181274414 1.2007641792297363 0.6932615637779236
-17.24568748474121 1.1688820123672485 0.6748543381690979
-16.55192756652832 1.127590537071228 0.6510146856307983
-15.843869209289549 1.0858172178268433 0.626896858215332
-14.406158447265627 1.0154335498809814 0.5862608551979065
-12.674659729003906 1.0057847499847412 0.5806901454925537
-10.703889846801758 1.0842903852462769 0.6260153651237488
-9.02557373046875 1.2318544387817383 0.7112115025520325
-7.44924020767212 1.325977087020874 0.7655531764030457
-6.08519983291626 1.3430925607681274 0.7754348516464233
-4.771496772766113 1.3236874341964722 0.7642313241958618
-3.4071061611175537 1.3198808431625366 0.7620335817337036
-1.9513970613479614 1.3527642488479614 0.7810187935829163