# vtk DataFile Version 4.0
 
ASCII
DATASET UNSTRUCTURED_GRID
POINTS 51 float
0.0032922609243541956 0.0021223260555416346 -0.007178427185863257
0.003229763358831405 0.005586628802120686 -0.009485436603426933
0.003138394095003605 0.00866435281932354 -0.012134948745369911
0.0028620881494134665 0.011541415005922318 -0.014905394986271858
0.0024306110572069883 0.014247892424464226 -0.017760930582880974
0.0019982317462563515 0.01692689210176468 -0.020531009882688522
0.0017444419208914044 0.019807398319244385 -0.022942734882235527
0.001740187988616526 0.02275121957063675 -0.02516080066561699
0.0019156732596457005 0.025538822636008263 -0.02744683437049389
0.00216366327367723 0.028342656791210175 -0.02959531918168068
0.002406609710305929 0.03109949454665184 -0.0316816121339798
0.0025995990727096796 0.03372468426823616 -0.033806584775447845
0.002723678248003125 0.03627106919884682 -0.03590727224946022
0.0027798479422926903 0.038795106112957 -0.037916384637355804
0.002782244235277176 0.041291870176792145 -0.03983980044722557
0.0027508526109158993 0.04372498020529747 -0.04172087088227272
0.0027057079132646322 0.04606061428785324 -0.04359989985823631
0.0026627120096236467 0.04829070717096329 -0.04548650234937668
0.002631532493978739 0.05043743923306465 -0.04735424742102623
0.002616326557472348 0.05253311991691589 -0.049164626747369766
0.002617395017296076 0.054599020630121224 -0.050892289727926254
0.002632583025842905 0.056635551154613495 -0.052536752074956894
0.0026584563311189413 0.05862950161099434 -0.05411375686526298
0.0026912044268101454 0.060565438121557236 -0.055641692131757736
0.0027272577863186598 0.062431734055280685 -0.05713441967964172
0.0027636769227683544 0.06422148644924164 -0.058600157499313354
0.0027983631007373333 0.0659322440624237 -0.06004184111952782
0.0028301344718784094 0.06756546348333359 -0.061457723379135125
0.002858696971088648 0.06912589818239212 -0.06284213811159134
0.002884538844227791 0.07062077522277832 -0.06418648362159729
0.002908645896241069 0.07205812633037567 -0.06548117101192474
0.0029320986941456795 0.07344453781843185 -0.06671836227178574
0.002955782227218151 0.07478372007608414 -0.06789363920688629
0.002980233170092106 0.0760759562253952 -0.06900665163993835
0.003005585866048932 0.07731825113296509 -0.07006098330020905
0.00303159118629992 0.07850484549999237 -0.07106348872184753
0.0030576810240745544 0.07962805777788162 -0.07202333211898804
0.003083063056692481 0.0806797668337822 -0.07295018434524536
0.0031068241223692894 0.08165502548217773 -0.07384993135929108
0.0031280354596674442 0.08255504816770554 -0.07472114264965057
0.00314584793522954 0.08338747918605804 -0.07555470615625381
0.0031595712061971426 0.08416485041379929 -0.07633566856384277
0.003168734721839428 0.08490253239870071 -0.0770457312464714
0.003173124277964235 0.08561935275793076 -0.07766245305538177
0.003172800177708268 0.08633842319250107 -0.07815828919410706
0.0031680921092629433 0.08708330243825912 -0.07850516587495804
0.0031595753971487284 0.08787190169095993 -0.07868172973394394
0.003148033283650875 0.08871088176965714 -0.07868005335330963
0.003134404309093952 0.08959207683801651 -0.0785098522901535
0.0031197243370115757 0.09049173444509506 -0.07819945365190506
0.003105060663074255 0.09137243777513504 -0.0777934268116951

CELLS 50 150
2 0 1
2 1 2
2 2 3
2 3 4
2 4 5
2 5 6
2 6 7
2 7 8
2 8 9
2 9 10
2 10 11
2 11 12
2 12 13
2 13 14
2 14 15
2 15 16
2 16 17
2 17 18
2 18 19
2 19 20
2 20 21
2 21 22
2 22 23
2 23 24
2 24 25
2 25 26
2 26 27
2 27 28
2 28 29
2 29 30
2 30 31
2 31 32
2 32 33
2 33 34
2 34 35
2 35 36
2 36 37
2 37 38
2 38 39
2 39 40
2 40 41
2 41 42
2 42 43
2 43 44
2 44 45
2 45 46
2 46 47
2 47 48
2 48 49
2 49 50

CELL_TYPES 50
4
4
4
4
4
4
4
4
4
4
4
4
4
4
4
4
4
4
4
4
4
4
4
4
4
4
4
4
4
4
4
4
4
4
4
4
4
4
4
4
4
4
4
4
4
4
4
4
4
4

POINT_DATA 51

SCALARS zone float
LOOKUP_TABLE default
1.0
1.0
1.0
1.0
1.0
1.0
1.0
1.0
1.0
1.0
1.0
1.0
1.0
1.0
1.0
1.0
1.0
1.0
1.0
1.0
1.0
1.0
1.0
1.0
1.0
1.0
1.0
1.0
1.0
1.0
1.0
1.0
1.0
1.0
1.0
1.0
1.0
1.0
1.0
1.0
1.0
1.0
1.0
1.0
1.0
1.0
1.0
1.0
1.0
1.0
1.0

VECTORS normals float
-3.124873182969168e-5 0.0017321513732895255 -0.001153504941612482
-7.693334191571921e-5 0.003271013498306274 -0.0024782607797533274
-0.0001838376629166305 0.0029773928690701723 -0.002709978958591819
-0.0003538915771059692 0.002791769802570343 -0.002812991151586175
-0.0004319281433708965 0.002692738315090537 -0.0028128072153776884
-0.0003430845681577921 0.002779752714559436 -0.002590902615338564
-0.00012902190792374313 0.0029121642000973225 -0.002314895624294877
8.561566210119054e-5 0.0028657126240432262 -0.0022520492784678936
0.0002117376570822671 0.002795719075948 -0.0022172597236931324
0.00024546831264160573 0.0027803354896605015 -0.0021173879504203796
0.0002179679140681401 0.0026910128071904182 -0.002105633495375514
0.00015853419608902186 0.0025857877917587757 -0.002112830989062786
9.012437658384442e-5 0.0025352120865136385 -0.002054899698123336
2.9283044568728656e-5 0.0025104000233113766 -0.0019662645645439625
-1.4497647498501465e-5 0.0024649356491863728 -0.0019022419583052397
-3.826815736829303e-5 0.002384372055530548 -0.0018800486577674744
-4.407023516250774e-5 0.0022828644141554832 -0.0018828158499673011
-3.708776057465002e-5 0.002188412006944418 -0.0018771749455481768
-2.319276609341614e-5 0.0021212068386375904 -0.0018390619661659004
-7.068673312460305e-6 0.0020807920955121517 -0.0017690213862806559
8.128289664455224e-6 0.0020512158516794443 -0.0016860640607774258
2.053066054941155e-5 0.002015240490436554 -0.0016107327537611125
2.9310647732927464e-5 0.0019649432506412268 -0.0015524696791544557
3.440070213400759e-5 0.001901115640066564 -0.001510331523604691
3.623620068538003e-5 0.0018280248623341324 -0.0014792326837778091
3.555265357135795e-5 0.0017502541886642577 -0.0014537111856043339
3.3228800020879135e-5 0.001671985606662929 -0.0014287830563262105
3.0166916985763237e-5 0.0015968263614922762 -0.001400149310939014
2.720216980378609e-5 0.0015276562189683318 -0.001364378142170608
2.4974500774987977e-5 0.0014661154709756374 -0.0013195144711062312
2.3779994080541655e-5 0.001411883276887238 -0.0012659408384934068
2.3568165488541126e-5 0.0013627966400235891 -0.0012062350288033485
2.406723433523439e-5 0.0013157102512195706 -0.001144145498983562
2.4901799406507052e-5 0.0012672677403315902 -0.001083672046661377
2.5678929887362756e-5 0.0012144445208832622 -0.0010284192394465208
2.604758265078999e-5 0.0011549013433977962 -0.0009811751078814268
2.573603342170827e-5 0.001087457756511867 -0.0009433462400920689
2.45715600613039e-5 0.0010134836193174124 -0.000913300144020468
2.2486185116576962e-5 0.0009376414236612618 -0.0008854803745634853
1.951184640347492e-5 0.0008662262698635459 -0.000852384720928967
1.5767878721817397e-5 0.0008049022872000932 -0.0008072627824731172
1.1443358744145371e-5 0.0007575289346277714 -0.0007455151062458754
6.776487680326682e-6 0.0007272522198036313 -0.0006633925368078053
2.0328297978267074e-6 0.0007179452804848552 -0.0005562790902331471
-2.5160579752991907e-6 0.0007319734431803226 -0.0004213560314383357
-6.612403467443073e-6 0.0007667387253604829 -0.0002617193676996976
-1.002946464723209e-5 0.000813788326922804 -8.744282968109474e-5
-1.2585563126776831e-5 0.0008600866422057152 8.59383144415915e-5
-1.4154468772176187e-5 0.0008904258720576762 0.00024030019994825125
-1.4671891221951226e-5 0.0008901822147890925 0.00035821483470499516
-7.331854249059689e-6 0.0004403546918183565 0.0002030140458373353

CELL_DATA 50

VECTORS liftinglineloading               float
0.08505534380674362 0.05061031132936478 0.07227901369333267
0.018935130909085274 0.022486761212348938 0.0321144238114357
0.04994150623679161 0.03900629281997681 0.05570675805211068
0.18112808465957642 0.07810302078723907 0.11154267191886902
-0.21937209367752078 0.17373539507389069 0.24811986088752747
-1.2899566888809204 0.39839819073677063 0.568971574306488
-3.019242286682129 0.7324028015136719 1.045979619026184
-4.757874011993408 1.0517082214355469 1.5019949674606323
-6.498270034790039 1.3445385694503784 1.9202001094818115
-8.684767723083496 1.648904800415039 2.3548800945281982
-10.87967300415039 1.9372947216033936 2.7667436599731445
-12.504704475402832 2.1132309436798096 3.0180065631866455
-13.539158821105955 2.1861090660095215 3.122087240219116
-14.20932674407959 2.217848300933838 3.1674156188964844
-14.648854255676271 2.1948366165161133 3.134551525115967
-15.580887794494627 2.1837308406829834 3.1186909675598145
-15.568421363830566 2.068837881088257 2.954606533050537
-15.45135974884033 1.973746180534363 2.8188016414642334
-15.350897789001465 1.8839197158813479 2.690516233444214
-14.70907974243164 1.7459174394607544 2.4934284687042236
-14.153515815734865 1.661369800567627 2.3726818561553955
-14.349292755126953 1.6215298175811768 2.3157846927642822
-14.185648918151855 1.5193711519241333 2.169886827468872
-14.506789207458496 1.5088731050491333 2.1548941135406494
-14.934852600097658 1.4557185173034668 2.078981399536133
-15.30765438079834 1.4204968214035034 2.028679847717285
-15.511923789978026 1.3829610347747803 1.975072979927063
-16.088769912719727 1.368991494178772 1.955122470855713
-16.539348602294922 1.3265377283096313 1.894492268562317
-17.609331130981445 1.3039467334747314 1.8622289896011353
-18.01018524169922 1.2470389604568481 1.7809562683105469
-18.33037567138672 1.1821765899658203 1.6883231401443481
-18.594791412353516 1.1086695194244385 1.5833442211151123
-18.868778228759766 1.0127041339874268 1.4462913274765015
-18.758752822875977 0.9665228128433228 1.3803375959396362
-18.575180053710938 0.8974925875663756 1.2817522287368774
-18.285743713378906 0.8431882262229918 1.2041975259780884
-17.610496520996094 0.7962351441383362 1.1371417045593262
-17.013906478881836 0.773901104927063 1.1052453517913818
-16.358173370361328 0.745884358882904 1.0652332305908203
-15.693190574645996 0.7178254723548889 1.0251610279083252
-14.292500495910645 0.6709258556365967 0.9581814408302306
-12.542628288269043 0.6638264656066895 0.9480424523353577
-10.913203239440918 0.7164382934570312 1.0231798887252808
-9.199604988098145 0.8167232871055604 1.166401743888855
-7.556552886962891 0.877561390399933 1.2532875537872314
-6.182908058166504 0.8892731070518493 1.270013689994812
-4.863404750823975 0.8768001198768616 1.2522003650665283
-3.4288425445556645 0.8720127940177917 1.2453633546829224
-1.968834638595581 0.8936713337898256 1.2762949466705322