# vtk DataFile Version 4.0
 
ASCII
DATASET UNSTRUCTURED_GRID
POINTS 51 float
0.0032922609243541956 0.0041347891092300415 0.006240000016987324
0.003229763358831405 0.0036752503365278244 0.01037672720849514
0.003138394095003605 0.003726571099832654 0.014437473379075527
0.0028620881494134665 0.0039995163679122925 0.018422240391373634
0.0024306110572069883 0.004447293467819691 0.022331025451421738
0.0019982317462563515 0.004847269505262375 0.026163829490542415
0.0017444419208914044 0.004843205213546753 0.029920652508735657
0.001740187988616526 0.0046500894241034985 0.03360149636864662
0.0019156732596457005 0.0046094562858343124 0.03720635920763016
0.00216366327367723 0.004453021101653576 0.040735241025686264
0.002406609710305929 0.004279152024537325 0.04418814182281494
0.0025995990727096796 0.004219538997858763 0.04756506159901619
0.002723678248003125 0.004191972315311432 0.05086600035429001
0.0027798479422926903 0.004108622670173645 0.054090958088636405
0.002782244235277176 0.003977156709879637 0.05723993852734566
0.0027508526109158993 0.003854166017845273 0.06031293421983719
0.0027057079132646322 0.003792268456891179 0.06330995261669159
0.0026627120096236467 0.0038040135987102985 0.06623098999261856
0.002631532493978739 0.003854899201542139 0.0690760463476181
0.002616326557472348 0.0038946487475186586 0.07184511423110962
0.002617395017296076 0.0038901823572814465 0.0745382085442543
0.002632583025842905 0.0038408567197620873 0.07715532183647156
0.0026584563311189413 0.0037672249600291256 0.07969645410776138
0.0026912044268101454 0.003693295875564218 0.08216160535812378
0.0027272577863186598 0.0036371601745486264 0.08455078303813934
0.0027636769227683544 0.0036095483228564262 0.08686397224664688
0.0027983631007373333 0.0036142913158982992 0.08910118043422699
0.0028301344718784094 0.0036491076461970806 0.09126240760087967
0.002858696971088648 0.003706604242324829 0.09334765374660492
0.002884538844227791 0.003775539342314005 0.09535692632198334
0.002908645896241069 0.003843416227027774 0.09729021042585373
0.0029320986941456795 0.0038999910466372967 0.09914752095937729
0.002955782227218151 0.003939497750252485 0.10092884302139282
0.002980233170092106 0.003961479291319847 0.10263418406248094
0.003005585866048932 0.0039706118404865265 0.10426355153322218
0.00303159118629992 0.003975849132984877 0.10581693798303606
0.0030576810240745544 0.0039891465567052364 0.10729433596134187
0.003083063056692481 0.004023130517452955 0.10869576036930083
0.0031068241223692894 0.004085494205355644 0.1100212037563324
0.0031280354596674442 0.004174356814473867 0.11127065867185593
0.00314584793522954 0.0042778244242072105 0.11244414001703264
0.0031595712061971426 0.004376392811536789 0.11354164034128189
0.003168734721839428 0.004446159116923809 0.11456315964460372
0.003173124277964235 0.004457831382751465 0.11550869792699814
0.003172800177708268 0.0043754554353654385 0.11637825518846512
0.0031680921092629433 0.004162379540503025 0.11717183142900467
0.0031595753971487284 0.003790732705965638 0.11788942664861679
0.003148033283650875 0.0032501635141670704 0.11853104084730147
0.003134404309093952 0.0025533614680171013 0.11909667402505875
0.0031197243370115757 0.001737292855978012 0.11958632618188858
0.003105060663074255 0.0008601482259109616 0.11999999731779097

CELLS 50 150
2 0 1
2 1 2
2 2 3
2 3 4
2 4 5
2 5 6
2 6 7
2 7 8
2 8 9
2 9 10
2 10 11
2 11 12
2 12 13
2 13 14
2 14 15
2 15 16
2 16 17
2 17 18
2 18 19
2 19 20
2 20 21
2 21 22
2 22 23
2 23 24
2 24 25
2 25 26
2 26 27
2 27 28
2 28 29
2 29 30
2 30 31
2 31 32
2 32 33
2 33 34
2 34 35
2 35 36
2 36 37
2 37 38
2 38 39
2 39 40
2 40 41
2 41 42
2 42 43
2 43 44
2 44 45
2 45 46
2 46 47
2 47 48
2 48 49
2 49 50

CELL_TYPES 50
4
4
4
4
4
4
4
4
4
4
4
4
4
4
4
4
4
4
4
4
4
4
4
4
4
4
4
4
4
4
4
4
4
4
4
4
4
4
4
4
4
4
4
4
4
4
4
4
4
4

POINT_DATA 51

SCALARS zone float
LOOKUP_TABLE default
1.0
1.0
1.0
1.0
1.0
1.0
1.0
1.0
1.0
1.0
1.0
1.0
1.0
1.0
1.0
1.0
1.0
1.0
1.0
1.0
1.0
1.0
1.0
1.0
1.0
1.0
1.0
1.0
1.0
1.0
1.0
1.0
1.0
1.0
1.0
1.0
1.0
1.0
1.0
1.0
1.0
1.0
1.0
1.0
1.0
1.0
1.0
1.0
1.0
1.0
1.0

VECTORS normals float
-3.124873182969168e-5 -0.00022976940090302378 0.002068363595753908
-7.693334191571921e-5 -0.00020410906290635464 0.004098737146705389
-0.0001838376629166305 0.00016213295748457313 0.00402275612577796
-0.0003538915771059692 0.0003603611548896879 0.003946775570511818
-0.0004319281433708965 0.00042387662688270206 0.0038707947824150324
-0.0003430845681577921 0.00019795598927885294 0.003794813994318247
-0.00012902190792374313 -9.859020792646334e-5 0.003718833439052105
8.561566210119054e-5 -0.00011687466758303346 0.0036428526509553194
0.0002117376570822671 -9.853410301730037e-5 0.003566872095689177
0.00024546831264160573 -0.00016515191236976534 0.0034908913075923915
0.0002179679140681401 -0.00011674094275804238 0.003414910519495607
0.00015853419608902186 -4.3589912820607424e-5 0.003338929964229465
9.012437658384442e-5 -5.545832391362638e-5 0.003262949176132679
2.9283044568728656e-5 -0.00010740796278696507 0.0031869683880358934
-1.4497647498501465e-5 -0.0001272281660931185 0.0031109878327697515
-3.826815736829303e-5 -9.244403190677986e-5 0.003035007044672966
-4.407023516250774e-5 -2.507631688786205e-5 0.0029590262565761805
-3.708776057465002e-5 3.131536868750118e-5 0.0028830457013100386
-2.319276609341614e-5 4.531767626758665e-5 0.002807064913213253
-7.068673312460305e-6 1.7641614249441773e-5 0.0027310841251164675
8.128289664455224e-6 -2.6896073904936202e-5 0.0026551035698503256
2.053066054941155e-5 -6.147867679828778e-5 0.00257912278175354
2.9310647732927464e-5 -7.378040027106181e-5 0.002503142226487398
3.440070213400759e-5 -6.5032480051741e-5 0.0024271614383906126
3.623620068538003e-5 -4.1873725422192365e-5 0.002351180650293827
3.555265357135795e-5 -1.1434328371251468e-5 0.002275200095027685
3.3228800020879135e-5 1.9779665308305994e-5 0.0021992193069308996
3.0166916985763237e-5 4.6156470489222556e-5 0.002123238518834114
2.720216980378609e-5 6.321576802292839e-5 0.002047257963567972
2.4974500774987977e-5 6.840589048806578e-5 0.0019712771754711866
2.3779994080541655e-5 6.222589581739157e-5 0.0018952965037897231
2.3568165488541126e-5 4.804082345799543e-5 0.0018193157156929374
2.406723433523439e-5 3.0744045943720266e-5 0.0017433350440114737
2.4901799406507052e-5 1.5556955986539833e-5 0.00166735437233001
2.5678929887362756e-5 7.184996320575011e-6 0.0015913737006485462
2.604758265078999e-5 9.267471796192694e-6 0.0015153929125517607
2.573603342170827e-5 2.3640748622710817e-5 0.001439412240870297
2.45715600613039e-5 4.817375884158537e-5 0.0013634315691888332
2.2486185116576962e-5 7.561304664704949e-5 0.0012874507810920477
1.951184640347492e-5 9.616505849407986e-5 0.001211470109410584
1.5767878721817397e-5 0.00010101794759975748 0.0011354894377291203
1.1443358744145371e-5 8.416749187745154e-5 0.0010595087660476565
6.776487680326682e-6 4.0719431126490235e-5 0.000983527977950871
2.0328297978267074e-6 -3.5351855331100523e-5 0.0009075473062694074
-2.5160579752991907e-6 -0.00014772600843571126 0.0008315665763802826
-6.612403467443073e-6 -0.000292361481115222 0.0007555859046988189
-1.002946464723209e-5 -0.0004561079549603164 0.0006796051748096943
-1.2585563126776831e-5 -0.0006186855607666075 0.0006036245031282306
-1.4154468772176187e-5 -0.0007564353290945292 0.0005276437732391059
-1.4671891221951226e-5 -0.0008466066210530699 0.0004516630724538117
-7.331854249059689e-6 -0.00043857231503352523 0.00020683636830653995

CELL_DATA 50

VECTORS liftinglineloading               float
0.08378364145755768 -0.08814476430416107 -0.007711667567491531
0.004091463051736355 -0.02523995190858841 -0.0022082095965743065
0.07327868044376373 -0.08296749740839005 -0.007258715108036995
0.1341995745897293 -0.1529778689146042 -0.013383829966187477
-0.2870936691761017 -0.3285664916038513 -0.028745843097567562
-1.5200958251953125 -0.7668525576591492 -0.06709090620279312
-3.284596681594849 -1.3471229076385498 -0.11785798519849776
-5.093138694763184 -1.9030119180679321 -0.16649197041988373
-6.90438175201416 -2.402240514755249 -0.21016882359981537
-9.210121154785156 -2.9411401748657227 -0.2573164105415344
-11.533285140991211 -3.45868444442749 -0.30259567499160767
-12.826869010925293 -3.7095947265625 -0.3245474696159363
-13.959481239318848 -3.8386125564575195 -0.3358350992202759
-14.692757606506348 -3.8963890075683594 -0.3408898711204529
-15.173995971679686 -3.8621926307678223 -0.3378980755805969
-15.492738723754883 -3.8053205013275146 -0.33292242884635925
-15.522871971130371 -3.606273889541626 -0.315508097410202
-15.468188285827637 -3.4470734596252437 -0.30157986283302307
-15.56031322479248 -3.30641508102417 -0.28927382826805115
-15.074998855590822 -3.0772173404693604 -0.26922163367271423
-14.905679702758789 -2.951998472213745 -0.2582663893699646
-14.965415954589842 -2.8579511642456055 -0.2500383257865906
-14.868549346923828 -2.695584774017334 -0.23583312332630157
-15.146177291870117 -2.66800856590271 -0.2334205061197281
-15.495587348937988 -2.564779043197632 -0.22438909113407135
-15.839714050292969 -2.4979190826416016 -0.2185395956039429
-16.042509078979492 -2.431959390640259 -0.21276886761188507
-17.03474235534668 -2.4027206897735596 -0.21021082997322083
-17.48566246032715 -2.3250324726104736 -0.2034139782190323
-18.42232322692871 -2.27453351020813 -0.198995903134346
-18.696102142333984 -2.166327476501465 -0.18952909111976624
-18.908111572265625 -2.049368143081665 -0.17929647862911224
-19.027111053466797 -1.9211771488189697 -0.16808122396469116
-19.260005950927734 -1.754206418991089 -0.15347318351268768
-19.093063354492188 -1.6756875514984133 -0.14660365879535675
-18.853361129760742 -1.5583133697509766 -0.13633474707603455
-18.516225814819336 -1.4663472175598145 -0.12828876078128815
-17.78990936279297 -1.386236548423767 -0.1212799847126007
-17.157007217407227 -1.3487776517868042 -0.11800274997949602
-16.469911575317383 -1.3008071184158325 -0.11380587518215178
-15.775477409362793 -1.2524436712265015 -0.10957462340593337
-14.347623825073242 -1.1710193157196045 -0.1024509146809578
-12.630475044250488 -1.158520221710205 -0.10135738551616669
-10.67730712890625 -1.2487807273864746 -0.10925415903329849
-8.987541198730469 -1.417287826538086 -0.12399661540985106
-7.348714828491211 -1.5227265357971191 -0.1332213133573532
-5.989579677581787 -1.5415421724319458 -0.13486745953559875
-4.681106090545654 -1.5184658765792847 -0.13284854590892792
-3.270074367523194 -1.5089720487594604 -0.13201795518398285
-1.8511469364166258 -1.5466428995132446 -0.1353137195110321