# vtk DataFile Version 4.0
 
ASCII
DATASET UNSTRUCTURED_GRID
POINTS 51 float
0.0032922609243541956 0.0033366039860993624 -0.006700832396745682
0.003229763358831405 0.0071488842368125916 -0.008371223695576191
0.003138394095003605 0.010639933869242668 -0.010446041822433472
0.0028620881494134665 0.013954369351267815 -0.012674802914261818
0.0024306110572069883 0.01711558736860752 -0.015016981400549412
0.0019982317462563515 0.020234905183315277 -0.017279773950576782
0.0017444419208914044 0.02349044382572174 -0.019154665991663933
0.001740187988616526 0.026774704456329346 -0.020827842876315117
0.0019156732596457005 0.029916923493146893 -0.022595085203647614
0.00216366327367723 0.03305124118924141 -0.024224048480391502
0.002406609710305929 0.03612847626209259 -0.025799924507737163
0.0025995990727096796 0.03908278048038483 -0.0274367593228817
0.002723678248003125 0.041955262422561646 -0.02906335517764091
0.0027798479422926903 0.04478983208537102 -0.030603650957345966
0.002782244235277176 0.04758266359567642 -0.032064288854599
0.0027508526109158993 0.050305452197790146 -0.03349427506327629
0.0027057079132646322 0.05293189361691475 -0.034939177334308624
0.0026627120096236467 0.055455710738897324 -0.03640986606478691
0.002631532493978739 0.057894159108400345 -0.03787646070122719
0.002616326557472348 0.06027237325906753 -0.03929542377591133
0.002617395017296076 0.06260689347982407 -0.04063810408115387
0.002632583025842905 0.0648980438709259 -0.041903942823410034
0.0026584563311189413 0.06713554263114929 -0.043110739439725876
0.0026912044268101454 0.06930739432573318 -0.04427929222583771
0.0027272577863186598 0.07140454649925232 -0.04542526230216026
0.0027636769227683544 0.07342162728309631 -0.046557944267988205
0.0027983631007373333 0.07535673677921295 -0.04768065735697746
0.0028301344718784094 0.07721100747585297 -0.04879142343997955
0.002858696971088648 0.07898814231157303 -0.04988384246826172
0.002884538844227791 0.08069375157356262 -0.05094817653298378
0.002908645896241069 0.08233408629894257 -0.051973599940538406
0.0029320986941456795 0.08391427248716354 -0.05295125022530556
0.002955782227218151 0.08543719351291656 -0.05387612804770469
0.002980233170092106 0.08690307289361954 -0.054747834801673896
0.003005585866048932 0.08830957859754562 -0.05557042732834815
0.00303159118629992 0.08965223282575607 -0.0563516542315483
0.0030576810240745544 0.09092504531145096 -0.05710187181830406
0.003083063056692481 0.09212172031402588 -0.057832013815641396
0.0031068241223692894 0.09323840588331223 -0.05854874104261398
0.0031280354596674442 0.09427604079246521 -0.05925042927265168
0.00314584793522954 0.09524057060480118 -0.05992677435278893
0.0031595712061971426 0.0961417481303215 -0.060560885816812515
0.003168734721839428 0.09699152410030365 -0.06113206595182419
0.003173124277964235 0.09780454635620117 -0.06161494180560113
0.003172800177708268 0.09859879314899445 -0.061978381127119064
0.0031680921092629433 0.0993925929069519 -0.062190640717744834
0.0031595753971487284 0.1001998707652092 -0.062227584421634674
0.003148033283650875 0.10102581232786179 -0.06208024546504021
0.003134404309093952 0.10186406224966049 -0.06175961345434188
0.0031197243370115757 0.10269615054130554 -0.06129770353436469
0.003105060663074255 0.10349297523498537 -0.060744911432266235

CELLS 50 150
2 0 1
2 1 2
2 2 3
2 3 4
2 4 5
2 5 6
2 6 7
2 7 8
2 8 9
2 9 10
2 10 11
2 11 12
2 12 13
2 13 14
2 14 15
2 15 16
2 16 17
2 17 18
2 18 19
2 19 20
2 20 21
2 21 22
2 22 23
2 23 24
2 24 25
2 25 26
2 26 27
2 27 28
2 28 29
2 29 30
2 30 31
2 31 32
2 32 33
2 33 34
2 34 35
2 35 36
2 36 37
2 37 38
2 38 39
2 39 40
2 40 41
2 41 42
2 42 43
2 43 44
2 44 45
2 45 46
2 46 47
2 47 48
2 48 49
2 49 50

CELL_TYPES 50
4
4
4
4
4
4
4
4
4
4
4
4
4
4
4
4
4
4
4
4
4
4
4
4
4
4
4
4
4
4
4
4
4
4
4
4
4
4
4
4
4
4
4
4
4
4
4
4
4
4

POINT_DATA 51

SCALARS zone float
LOOKUP_TABLE default
1.0
1.0
1.0
1.0
1.0
1.0
1.0
1.0
1.0
1.0
1.0
1.0
1.0
1.0
1.0
1.0
1.0
1.0
1.0
1.0
1.0
1.0
1.0
1.0
1.0
1.0
1.0
1.0
1.0
1.0
1.0
1.0
1.0
1.0
1.0
1.0
1.0
1.0
1.0
1.0
1.0
1.0
1.0
1.0
1.0
1.0
1.0
1.0
1.0
1.0
1.0

VECTORS normals float
-3.124873182969168e-5 0.0019061401253566146 -0.0008351956494152545
-7.693334191571921e-5 0.003651664825156331 -0.0018726048292592168
-0.0001838376629166305 0.0034027425572276115 -0.00215178937651217
-0.0003538915771059692 0.0032378272153437138 -0.0022854695562273264
-0.0004319281433708965 0.0031402683816850185 -0.0023024852853268385
-0.0003430845681577921 0.0031874275300651793 -0.002068842062726617
-0.00012902190792374313 0.0032698994036763906 -0.0017740350449457762
8.561566210119054e-5 0.003213240299373865 -0.0017202099552378056
0.0002117376570822671 0.003138268832117319 -0.0016981029184535148
0.00024546831264160573 0.003105776384472847 -0.0016024198848754168
0.0002179679140681401 0.0030157698784023523 -0.0016063547227531672
0.00015853419608902186 0.0029133930802345276 -0.001631714985705912
9.012437658384442e-5 0.002853526035323739 -0.0015834462828934193
2.9283044568728656e-5 0.0028136996552348137 -0.001500466256402433
-1.4497647498501465e-5 0.0027578084263950586 -0.0014453110052272677
-3.826815736829303e-5 0.002674615243449807 -0.0014374447055161
-4.407023516250774e-5 0.0025751302018761635 -0.0014577964320778847
-3.708776057465002e-5 0.0024811329785734415 -0.0014686427311971784
-2.319276609341614e-5 0.0024083307944238186 -0.0014427787391468883
-7.068673312460305e-6 0.0023563674185425043 -0.001380820176564157
8.128289664455224e-6 0.0023128350730985403 -0.0013042590580880642
2.053066054941155e-5 0.002264325274154544 -0.0012363193091005087
2.9310647732927464e-5 0.0022046747617423534 -0.0011876753997057676
3.440070213400759e-5 0.002134499605745077 -0.0011572609655559063
3.623620068538003e-5 0.0020571190398186445 -0.0011393266031518579
3.555265357135795e-5 0.0019760981667786837 -0.0011276975274085999
3.3228800020879135e-5 0.0018946899799630046 -0.0011167393531650305
3.0166916985763237e-5 0.00181570032145828 -0.0011015919735655189
2.720216980378609e-5 0.0017413694877177477 -0.001078375382348895
2.4974500774987977e-5 0.001672973157837987 -0.0010448797838762403
2.3779994080541655e-5 0.0016102619701996446 -0.0010015374282374978
2.3568165488541126e-5 0.001551553257741034 -0.0009512624819763006
2.406723433523439e-5 0.0014944004360586405 -0.0008982926374301314
2.4901799406507052e-5 0.001436192775145173 -0.0008471498731523753
2.5678929887362756e-5 0.0013745775213465095 -0.000801909191068262
2.604758265078999e-5 0.0013077351031824946 -0.0007657223613932729
2.573603342170827e-5 0.0012347472365945578 -0.0007401796174235642
2.45715600613039e-5 0.0011566794710233808 -0.0007234354852698743
2.2486185116576962e-5 0.00107715860940516 -0.0007092082523740828
1.951184640347492e-5 0.0010010814294219017 -0.0006890164222568274
1.5767878721817397e-5 0.0009328537271358072 -0.0006552287959493697
1.1443358744145371e-5 0.0008754777372814714 -0.0006026455666869879
6.776487680326682e-6 0.0008314005099236964 -0.0005270280526019633
2.0328297978267074e-6 0.0008036349317990245 -0.00042315805330872536
-2.5160579752991907e-6 0.0007940208306536078 -0.0002878488157875836
-6.612403467443073e-6 0.0008005372947081923 -0.0001246004831045866
-1.002946464723209e-5 0.0008166093612089752 5.5198481277329854e-5
-1.2585563126776831e-5 0.0008320969063788652 0.00023398519260808825
-1.4154468772176187e-5 0.0008351706201210618 0.00039127032505348325
-1.4671891221951226e-5 0.000814454979263246 0.0005073513020761311
-7.331854249059689e-6 0.0003984117065556347 0.00027639660402201116

CELL_DATA 50

VECTORS liftinglineloading               float
0.1122245639562607 0.043403465300798416 0.09307903051376343
0.12998764216899872 0.0597422830760479 0.12811774015426636
-0.0734122022986412 0.012906569987535477 0.0276782289147377
0.2424459159374237 0.03782663866877556 0.08111948519945145
-0.056751497089862823 0.10036814212799072 0.21524018049240112
-1.0275418758392334 0.25311073660850525 0.5427976846694946
-2.781843423843384 0.5047445297241211 1.0824280977249146
-4.581567287445068 0.7454579472541809 1.598639726638794
-6.400700092315674 0.9610542654991151 2.0609874725341797
-8.83309268951416 1.1920137405395508 2.556281805038452
-11.23449993133545 1.4093117713928223 3.0222790241241455
-12.968324661254883 1.5292229652404785 3.2794291973114014
-14.15512943267822 1.5835362672805786 3.395904541015625
-14.939666748046877 1.6088463068008423 3.4501819610595703
-15.47812557220459 1.6009409427642822 3.4332289695739746
-15.92647647857666 1.586875081062317 3.403064489364624
-16.02845001220703 1.5170540809631348 3.25333309173584
-16.06694793701172 1.4558937549591064 3.1221742630004883
-16.091899871826172 1.3895201683044434 2.9798357486724854
-15.660822868347168 1.2985700368881226 2.784792423248291
-15.610462188720703 1.2497785091400146 2.6801586151123047
-15.463918685913086 1.1969624757766724 2.566894292831421
-15.54796314239502 1.14345383644104 2.4521446228027344
-15.725019454956055 1.1260950565338135 2.4149186611175537
-15.971425056457518 1.078245759010315 2.3123056888580322
-16.308475494384766 1.0489062070846558 2.2493865489959717
-16.857717514038086 1.0334391593933105 2.216217517852783
-17.16058921813965 1.006103754043579 2.1575965881347656
-17.635854721069336 0.9740057587623597 2.088762044906616
-18.45475959777832 0.9512555599212648 2.0399742126464844
-18.651578903198242 0.9062202572822571 1.9433956146240234
-18.88474464416504 0.8569303154945374 1.8376929759979246
-19.01569175720215 0.803005039691925 1.7220499515533447
-19.265033721923828 0.732943594455719 1.5718026161193848
-19.096113204956055 0.7004875540733337 1.5022004842758179
-18.863229751586914 0.6518440842628479 1.3978841304779053
-18.53278923034668 0.6139745712280273 1.316672682762146
-17.8048152923584 0.5808629393577576 1.2456645965576172
-17.205862045288086 0.5655272006988525 1.212777018547058
-16.527292251586914 0.545805037021637 1.1704826354980469
-15.831926345825195 0.5257391929626465 1.1274514198303223
-14.415294647216797 0.49180534482002264 1.0546799898147583
-12.69650936126709 0.48800843954086304 1.0465375185012817
-10.74947452545166 0.5266962051391602 1.1295037269592285
-9.088963508605957 0.5997248888015747 1.2861140966415405
-7.4843573570251465 0.644970715045929 1.3831442594528198
-6.144879341125488 0.6540310382843018 1.402574062347412
-4.853024005889893 0.6453683376312256 1.383996844291687
-3.4407529830932617 0.6423923969268799 1.377614974975586
-1.9938329458236697 0.6588423848152161 1.4128921031951904