# vtk DataFile Version 4.0
 
ASCII
DATASET UNSTRUCTURED_GRID
POINTS 51 float
0.0032922609243541956 -0.007483126595616341 -0.00019209590391255915
0.003229763358831405 -0.010608154349029064 -0.002941257320344448
0.003138394095003605 -0.013963959179818628 -0.005228366237133741
0.0028620881494134665 -0.017384642735123634 -0.007290350738912821
0.0024306110572069883 -0.020843368023633957 -0.009165540337562561
0.0019982317462563515 -0.024212433025240898 -0.011036304756999016
0.0017444419208914044 -0.02728751301765442 -0.013194459490478039
0.001740187988616526 -0.03019191510975361 -0.015463896095752716
0.0019156732596457005 -0.033121541142463684 -0.017564844340085983
0.00216366327367723 -0.03592250123620033 -0.019717073068022728
0.002406609710305929 -0.038651227951049805 -0.02184000052511692
0.0025995990727096796 -0.04138324409723282 -0.023825753480196
0.002723678248003125 -0.04407140612602234 -0.025741675868630406
0.0027798479422926903 -0.04666532948613167 -0.027659714221954346
0.002782244235277176 -0.04916941374540329 -0.029573583975434307
0.0027508526109158993 -0.051616121083498 -0.03143693134188652
0.0027057079132646322 -0.05403563380241395 -0.03320665284991264
0.0026627120096236467 -0.05643514171242714 -0.03487246856093407
0.002631532493978739 -0.05879485979676247 -0.03646264225244522
0.002616326557472348 -0.06108595430850983 -0.0380183570086956
0.002617395017296076 -0.06328944861888885 -0.03956671059131622
0.002632583025842905 -0.0654049664735794 -0.041108231991529465
0.0026584563311189413 -0.06744430959224701 -0.04262607917189598
0.0026912044268101454 -0.06942123919725418 -0.04410059377551079
0.0027272577863186598 -0.07134613394737244 -0.04551694914698601
0.0027636769227683544 -0.07322514802217484 -0.04686635732650757
0.0027983631007373333 -0.07506048679351807 -0.048145681619644165
0.0028301344718784094 -0.07685083150863647 -0.049356792122125626
0.002858696971088648 -0.07859194278717041 -0.05050574243068695
0.002884538844227791 -0.08027738332748413 -0.05160174518823623
0.002908645896241069 -0.0818999707698822 -0.05265503004193307
0.0029320986941456795 -0.08345383405685425 -0.053673993796110146
0.002955782227218151 -0.08493567258119583 -0.054663360118865974
0.002980233170092106 -0.08634521812200546 -0.055623497813940055
0.003005585866048932 -0.08768515288829803 -0.05655058100819588
0.00303159118629992 -0.08896061033010483 -0.05743727460503578
0.0030576810240745544 -0.0901784598827362 -0.058273784816265106
0.003083063056692481 -0.09134592860937119 -0.05904977023601532
0.0031068241223692894 -0.09246743470430374 -0.059758927673101425
0.0031280354596674442 -0.09354190528392792 -0.06040279567241669
0.00314584793522954 -0.09456250816583633 -0.06099111959338188
0.0031595712061971426 -0.09551806002855301 -0.06153987720608711
0.003168734721839428 -0.0963948592543602 -0.062068648636341095
0.003173124277964235 -0.09717608988285065 -0.06260142475366592
0.003172800177708268 -0.09784114360809326 -0.06316766142845154
0.0031680921092629433 -0.09836898744106293 -0.06379737704992294
0.0031595753971487284 -0.09874363988637924 -0.06451340764760971
0.003148033283650875 -0.09895916283130646 -0.06532423198223114
0.003134404309093952 -0.09902283549308777 -0.06621945649385452
0.0031197243370115757 -0.09895585477352142 -0.06716879457235336
0.003105060663074255 -0.09879160672426224 -0.06812457740306854

CELLS 50 150
2 0 1
2 1 2
2 2 3
2 3 4
2 4 5
2 5 6
2 6 7
2 7 8
2 8 9
2 9 10
2 10 11
2 11 12
2 12 13
2 13 14
2 14 15
2 15 16
2 16 17
2 17 18
2 18 19
2 19 20
2 20 21
2 21 22
2 22 23
2 23 24
2 24 25
2 25 26
2 26 27
2 27 28
2 28 29
2 29 30
2 30 31
2 31 32
2 32 33
2 33 34
2 34 35
2 35 36
2 36 37
2 37 38
2 38 39
2 39 40
2 40 41
2 41 42
2 42 43
2 43 44
2 44 45
2 45 46
2 46 47
2 47 48
2 48 49
2 49 50

CELL_TYPES 50
4
4
4
4
4
4
4
4
4
4
4
4
4
4
4
4
4
4
4
4
4
4
4
4
4
4
4
4
4
4
4
4
4
4
4
4
4
4
4
4
4
4
4
4
4
4
4
4
4
4

POINT_DATA 51

SCALARS zone float
LOOKUP_TABLE default
1.0
1.0
1.0
1.0
1.0
1.0
1.0
1.0
1.0
1.0
1.0
1.0
1.0
1.0
1.0
1.0
1.0
1.0
1.0
1.0
1.0
1.0
1.0
1.0
1.0
1.0
1.0
1.0
1.0
1.0
1.0
1.0
1.0
1.0
1.0
1.0
1.0
1.0
1.0
1.0
1.0
1.0
1.0
1.0
1.0
1.0
1.0
1.0
1.0
1.0
1.0

VECTORS normals float
-3.124873182969168e-5 -0.0015625139931216836 -0.0013745806645601988
-7.693334191571921e-5 -0.0032404165249317884 -0.002518135355785489
-0.0001838376629166305 -0.0033882446587085724 -0.0021745467092841864
-0.0003538915771059692 -0.003439703956246376 -0.001968586817383766
-0.0004319281433708965 -0.003413895145058632 -0.0018729772418737411
-0.0003430845681577921 -0.0032220727298408747 -0.0020144598092883825
-0.00012902190792374313 -0.0029897410422563553 -0.00221379566937685
8.561566210119054e-5 -0.0029170135967433453 -0.002185192657634616
0.0002117376570822671 -0.0028652935288846493 -0.0021265880204737186
0.00024546831264160573 -0.0027648434042930603 -0.0021375773940235376
0.0002179679140681401 -0.0027303711976855993 -0.0020543409045785666
0.00015853419608902186 -0.002710089087486267 -0.0019508382538333533
9.012437658384442e-5 -0.0026410419959574938 -0.0019169795559719205
2.9283044568728656e-5 -0.0025490049738436937 -0.0019159534713253379
-1.4497647498501465e-5 -0.0024753969628363848 -0.0018886084435507655
-3.826815736829303e-5 -0.0024331083986908197 -0.0018165342044085264
-4.407023516250774e-5 -0.0024095093831419945 -0.0017177690751850605
-3.708776057465002e-5 -0.002379614394158125 -0.0016279950505122542
-2.319276609341614e-5 -0.0023254060652107 -0.0015729442238807678
-7.068673312460305e-6 -0.0022472920827567577 -0.0015520344022661448
8.128289664455224e-6 -0.0021595065481960773 -0.0015449367929250002
2.053066054941155e-5 -0.0020774309523403645 -0.0015296844067052007
2.9310647732927464e-5 -0.002008135197684169 -0.001496180659160018
3.440070213400759e-5 -0.0019509131088852882 -0.0014454340562224388
3.623620068538003e-5 -0.0019019567407667637 -0.0013828828232362866
3.555265357135795e-5 -0.0018571763066574931 -0.0013143675168976188
3.3228800020879135e-5 -0.0018128401134163141 -0.001245217863470316
3.0166916985763237e-5 -0.0017657295102253556 -0.0011800304055213928
2.720216980378609e-5 -0.0017132745124399662 -0.0011224756017327309
2.4974500774987977e-5 -0.0016540117794647813 -0.0010746433399617672
2.3779994080541655e-5 -0.0015882273437455297 -0.0010361248860135674
2.3568165488541126e-5 -0.0015178513713181019 -0.0010041638743132353
2.406723433523439e-5 -0.0014456905191764235 -0.0009747518924996257
2.4901799406507052e-5 -0.0013747398043051362 -0.0009436116670258344
2.5678929887362756e-5 -0.0013076980831101537 -0.0009068888030014933
2.604758265078999e-5 -0.0012466527987271547 -0.0008616021950729191
2.573603342170827e-5 -0.0011926572769880295 -0.0008062475826591254
2.45715600613039e-5 -0.0011444890405982733 -0.0007425705553032458
2.2486185116576962e-5 -0.0010979878716170788 -0.0006765128928236663
1.951184640347492e-5 -0.001047536265105009 -0.0006160968914628029
1.5767878721817397e-5 -0.0009880800498649478 -0.0005685409414581954
1.1443358744145371e-5 -0.0009161752532236279 -0.0005387632409110665
6.776487680326682e-6 -0.0008290146943181753 -0.0005307730752974749
2.0328297978267074e-6 -0.0007231422350741923 -0.0005495062796398997
-2.5160579752991907e-6 -0.0005964473239146173 -0.0005979770794510841
-6.612403467443073e-6 -0.0004512480809353292 -0.0006728747393935919
-1.002946464723209e-5 -0.00029508720035664737 -0.0007634272915311158
-1.2585563126776831e-5 -0.00013959675561636686 -0.0008530223276466132
-1.4154468772176187e-5 1.6530052562302444e-6 -0.000922279607038945
-1.4671891221951226e-5 0.00011561285646166652 -0.0009525628411211072
-7.331854249059689e-6 8.212432294385508e-5 -0.0004778938891831786

CELL_DATA 50

VECTORS liftinglineloading               float
0.15233205258846283 0.08339633047580719 -0.09938787668943405
0.24235950410366058 0.150257870554924 -0.1790703535079956
-0.11944399029016496 0.04024410992860794 -0.04796106368303299
0.16003675758838654 0.05540290474891663 -0.06602661311626434
0.18147076666355133 0.10877672582864761 -0.1296350508928299
-0.716964602470398 0.3279454708099365 -0.3908301889896393
-2.4883079528808594 0.7297550439834595 -0.8696882128715515
-4.3822455406188965 1.132056713104248 -1.3491326570510864
-6.306725025177002 1.4974005222320557 -1.7845325469970705
-8.639338493347168 1.8519943952560425 -2.2071211338043213
-11.003467559814453 2.1849732398986816 -2.603949546813965
-12.766143798828125 2.3829731941223145 -2.839916944503784
-13.941949844360352 2.4654626846313477 -2.9382240772247314
-14.7023344039917 2.5010249614715576 -2.9806056022644043
-15.208357810974121 2.4788002967834473 -2.9541189670562744
-15.569775581359863 2.4441540241241455 -2.9128293991088867
-15.640472412109377 2.3206262588500977 -2.7656147480010986
-15.64774227142334 2.2212462425231934 -2.6471784114837646
-15.724392890930176 2.1266355514526367 -2.5344254970550537
-15.272517204284668 1.9815272092819214 -2.361492156982422
-15.120709419250487 1.9012277126312256 -2.2657949924468994
-15.115039825439453 1.8330581188201904 -2.184553623199463
-15.24509334564209 1.7431652545928955 -2.077423572540283
-15.532221794128418 1.7222808599472046 -2.052534341812134
-15.864176750183105 1.652259349822998 -1.9690860509872434
-16.238929748535156 1.6079857349395752 -1.9163228273391724
-16.526582717895508 1.5676984786987305 -1.8683103322982788
-17.11326789855957 1.542937994003296 -1.8388019800186157
-17.547779083251953 1.4930870532989502 -1.779391884803772
-18.442794799804688 1.4599533081054688 -1.7399046421051025
-18.65920639038086 1.390632152557373 -1.6572909355163574
-18.809240341186523 1.3167915344238281 -1.5692909955978394
-18.86408042907715 1.236492395401001 -1.473594307899475
-19.031204223632812 1.1317940950393677 -1.348819613456726
-18.80116844177246 1.0834904909133911 -1.291253685951233
-18.418109893798828 1.0115150213241577 -1.2054766416549683
-18.033029556274414 0.9521098732948304 -1.1346803903579712
-17.29848861694336 0.9005078077316283 -1.0731834173202515
-16.636974334716797 0.8752738237380983 -1.043110728263855
-15.920887947082518 0.8437545299530029 -1.0055475234985352
-15.240489006042479 0.8123973608016968 -0.9681774973869325
-13.81804084777832 0.7592847347259521 -0.9048802852630614
-12.149406433105469 0.7452682852745056 -0.8881761431694031
-10.22512149810791 0.8000738024711609 -0.9534907937049866
-8.592317581176758 0.9010722041130066 -1.073855996131897
-6.9825968742370605 0.9675481319427491 -1.1530790328979492
-5.686077117919922 0.9785966277122496 -1.1662460565567017
-4.413458824157715 0.9620771408081056 -1.1465588808059692
-3.0572986602783203 0.9543489813804625 -1.1373487710952759
-1.7106088399887085 0.9778872132301331 -1.1654006242752075