# vtk DataFile Version 4.0
 
ASCII
DATASET UNSTRUCTURED_GRID
POINTS 51 float
0.0032922609243541956 0.007097539491951466 -0.0023788688704371452
0.003229763358831405 0.010974373668432236 -0.0008643246837891638
0.003138394095003605 0.014910036697983743 0.00013710188795812428
0.0028620881494134665 0.018829667940735817 0.0009047903586179018
0.0024306110572069883 0.02272115834057331 0.0014839390059933066
0.0019982317462563515 0.026526883244514465 0.00208959449082613
0.0017444419208914044 0.03015464544296265 0.003065857570618391
0.001740187988616526 0.03366008400917053 0.004205065779387951
0.0019156732596457005 0.037131596356630325 0.005177321378141642
0.00216366327367723 0.040499746799468994 0.006241768132895231
0.002406609710305929 0.04378999397158623 0.00730338878929615
0.0025995990727096796 0.047036416828632355 0.008234982378780842
0.002723678248003125 0.05021774768829346 0.009115954861044884
0.0027798479422926903 0.053311243653297424 0.010031145997345448
0.002782244235277176 0.056318897753953934 0.010973148047924042
0.0027508526109158993 0.059255354106426246 0.011887297965586185
0.0027057079132646322 0.06213422864675521 0.012722771614789963
0.0026627120096236467 0.06495877355337143 0.013467445969581604
0.002631532493978739 0.06772005558013916 0.014154648408293722
0.002616326557472348 0.07040506601333618 0.014832942746579647
0.002617395017296076 0.07300523668527603 0.01553428079932928
0.002632583025842905 0.07552041113376617 0.01625928469002247
0.0026584563311189413 0.07795589417219162 0.016988100484013557
0.0026912044268101454 0.0803179144859314 0.017697539180517197
0.0027272577863186598 0.08261115103960037 0.0183701254427433
0.0027636769227683544 0.0848383754491806 0.0189954936504364
0.0027983631007373333 0.08700057864189148 0.019569944590330124
0.0028301344718784094 0.08909717947244644 0.02009568177163601
0.002858696971088648 0.09112625569105148 0.02057984657585621
0.002884538844227791 0.0930848941206932 0.02103329636156559
0.002908645896241069 0.09496987611055374 0.021468104794621468
0.0029320986941456795 0.09677854180335999 0.021894164383411407
0.002955782227218151 0.09850939363241196 0.02231704443693161
0.002980233170092106 0.1001623198390007 0.022737188264727592
0.003005585866048932 0.10173852741718292 0.02315007708966732
0.00303159118629992 0.10324033349752425 0.023547062650322914
0.0030576810240745544 0.10467083752155304 0.02391659840941429
0.003083063056692481 0.10603330284357072 0.024246487766504288
0.0031068241223692894 0.10732972621917723 0.024529296904802322
0.0031280354596674442 0.10855960845947266 0.024766847491264343
0.00314584793522954 0.10971987992525101 0.02497062459588051
0.0031595712061971426 0.1108054965734482 0.02515946887433529
0.003168734721839428 0.11181026697158813 0.025356467813253403
0.003173124277964235 0.1127266064286232 0.025589914992451668
0.003172800177708268 0.1135452091693878 0.025894543156027794
0.0031680921092629433 0.11425659805536272 0.026305751875042915
0.0031595753971487284 0.11485355347394943 0.026850461959838867
0.003148033283650875 0.11533339321613312 0.02753867395222187
0.003134404309093952 0.1156994104385376 0.028358129784464833
0.0031197243370115757 0.11596116423606873 0.029273122549057007
0.003105060663074255 0.1161337196826935 0.030227446928620342

CELLS 50 150
2 0 1
2 1 2
2 2 3
2 3 4
2 4 5
2 5 6
2 6 7
2 7 8
2 8 9
2 9 10
2 10 11
2 11 12
2 12 13
2 13 14
2 14 15
2 15 16
2 16 17
2 17 18
2 18 19
2 19 20
2 20 21
2 21 22
2 22 23
2 23 24
2 24 25
2 25 26
2 26 27
2 27 28
2 28 29
2 29 30
2 30 31
2 31 32
2 32 33
2 33 34
2 34 35
2 35 36
2 36 37
2 37 38
2 38 39
2 39 40
2 40 41
2 41 42
2 42 43
2 43 44
2 44 45
2 45 46
2 46 47
2 47 48
2 48 49
2 49 50

CELL_TYPES 50
4
4
4
4
4
4
4
4
4
4
4
4
4
4
4
4
4
4
4
4
4
4
4
4
4
4
4
4
4
4
4
4
4
4
4
4
4
4
4
4
4
4
4
4
4
4
4
4
4
4

POINT_DATA 51

SCALARS zone float
LOOKUP_TABLE default
1.0
1.0
1.0
1.0
1.0
1.0
1.0
1.0
1.0
1.0
1.0
1.0
1.0
1.0
1.0
1.0
1.0
1.0
1.0
1.0
1.0
1.0
1.0
1.0
1.0
1.0
1.0
1.0
1.0
1.0
1.0
1.0
1.0
1.0
1.0
1.0
1.0
1.0
1.0
1.0
1.0
1.0
1.0
1.0
1.0
1.0
1.0
1.0
1.0
1.0
1.0

VECTORS normals float
-3.124873182969168e-5 0.0019384172046557069 0.0007572721224278212
-7.693334191571921e-5 0.003906248603016138 0.0012579853646457195
-0.0001838376629166305 0.003927647136151791 0.0008845574920997024
-0.0003538915771059692 0.0039055608212947845 0.0006734185153618455
-0.0004319281433708965 0.0038486081175506115 0.0005924020661041141
-0.0003430845681577921 0.0037167437840253115 0.0007909593405202031
-0.00012902190792374313 0.0035666001494973902 0.0010577357606962323
8.561566210119054e-5 0.00348847615532577 0.0010557319037616253
0.0002117376570822671 0.0034198311623185873 0.0010183510603383183
0.00024546831264160573 0.0033291976433247328 0.0010630335891619325
0.0002179679140681401 0.003268335480242967 0.0009966070065274835
0.00015853419608902186 0.003213876625522971 0.0009062832687050104
9.012437658384442e-5 0.003137413179501891 0.0008980820421129464
2.9283044568728656e-5 0.003050575964152813 0.0009285962441936135
-1.4497647498501465e-5 0.0029720542952418327 0.0009280758677050471
-3.826815736829303e-5 0.0029076654464006424 0.0008748117252252997
-4.407023516250774e-5 0.002851709723472595 0.0007900742348283529
-3.708776057465002e-5 0.002792913233861327 0.000715938804205507
-2.319276609341614e-5 0.002723145531490445 0.0006827483302913606
-7.068673312460305e-6 0.0026425907853990793 0.0006898161373101175
8.128289664455224e-6 0.0025576718617230654 0.0007131709717214108
2.053066054941155e-5 0.002475329441949725 0.0007269099587574601
2.9310647732927464e-5 0.002398753771558404 0.000719127245247364
3.440070213400759e-5 0.0023276263382285833 0.0006910121301189065
3.623620068538003e-5 0.0022602283861488104 0.0006489772349596024
3.555265357135795e-5 0.002194714965298772 0.0005999098066240549
3.3228800020879135e-5 0.0021294020116329193 0.0005500941770151258
3.0166916985763237e-5 0.00206283712759614 0.0005049508763477206
2.720216980378609e-5 0.0019938608165830374 0.00046880758600309486
2.4974500774987977e-5 0.001921812305226922 0.00044412905117496854
2.3779994080541655e-5 0.0018468210473656654 0.00043043322511948645
2.3568165488541126e-5 0.0017697579460218549 0.0004244697047397495
2.406723433523439e-5 0.0016918894834816454 0.00042151185334660113
2.4901799406507052e-5 0.0016145671252161264 0.00041651620995253325
2.5678929887362756e-5 0.0015390085754916072 0.00040493762935511773
2.604758265078999e-5 0.0014661557506769896 0.00038326086360029876
2.573603342170827e-5 0.0013964840909466147 0.0003497120924293995
2.45715600613039e-5 0.0013294420205056667 0.0003063497715629637
2.2486185116576962e-5 0.0012631521094590425 0.00026018021162599325
1.951184640347492e-5 0.0011950796470046043 0.00022066323435865343
1.5767878721817397e-5 0.0011229439405724406 0.000196310444152914
1.1443358744145371e-5 0.0010451909620314837 0.0001929214777192101
6.776487680326682e-6 0.0009605540544725953 0.00021522383030969647
2.0328297978267074e-6 0.0008674736600369216 0.0002690377878025174
-2.5160579752991907e-6 0.0007649973267689347 0.00035791765549220145
-6.612403467443073e-6 0.0006541712209582329 0.0004779595183208584
-1.002946464723209e-5 0.0005383988027460873 0.0006164612132124603
-1.2585563126776831e-5 0.0004229288606438786 0.0007538339123129845
-1.4154468772176187e-5 0.00031388489878736436 0.0008672247058711946
-1.4671891221951226e-5 0.00021715511684305969 0.0009346581646241248
-7.331854249059689e-6 8.627771603642032e-5 0.0004771615203935653

CELL_DATA 50

VECTORS liftinglineloading               float
0.1380777209997177 -0.04135700315237045 0.11362743377685545
0.20047463476657867 -0.06839954107999802 0.18792620301246643
-0.10668926686048508 -0.015508992597460747 0.04261060804128647
0.21197012066841125 -0.02895679697394371 0.07955814152956009
0.07441098242998123 -0.06965617835521698 0.19137877225875854
-0.8588040471076966 -0.18999159336090088 0.5219976305961609
-2.668288469314575 -0.4042932391166687 1.1107865571975708
-4.558116436004639 -0.6130530834197998 1.6843494176864624
-6.461158275604248 -0.7995241284370422 2.196674346923828
-8.815439224243164 -0.9859393835067748 2.7088463306427
-11.211647033691406 -1.1633095741271973 3.1961669921875
-12.967384338378906 -1.264419436454773 3.473963975906372
-14.140345573425295 -1.3072203397750854 3.591558456420899
-14.905176162719728 -1.3261605501174927 3.6435959339141846
-15.417765617370605 -1.3159745931625366 3.6156105995178227
-15.812118530273438 -1.3001326322555542 3.57208514213562
-15.88990306854248 -1.2376655340194702 3.4004583358764644
-15.90438652038574 -1.1855477094650269 3.257265567779541
-15.934783935546877 -1.132527232170105 3.111593008041382
-15.53249454498291 -1.0579912662506104 2.9068069458007812
-15.414462089538574 -1.0159859657287598 2.791398525238037
-15.363717079162598 -0.9764242768287659 2.682703733444214
-15.436668395996094 -0.9297431707382202 2.554448366165161
-15.666687965393068 -0.9168996810913087 2.5191612243652344
-15.9611759185791 -0.8786973357200623 2.414201021194458
-16.31414222717285 -0.8547359704971313 2.348367929458618
-16.628625869750977 -0.8337016701698304 2.290576457977295
-17.181791305541992 -0.819790244102478 2.2523550987243652
-17.637405395507812 -0.7933148741722107 2.179614782333374
-18.555997848510742 -0.7751638293266296 2.1297452449798584
-18.792139053344727 -0.7375530004501343 2.0264103412628174
-18.96483612060547 -0.6975612640380859 1.9165338277816772
-19.042266845703125 -0.6541019082069397 1.7971302270889282
-19.237545013427734 -0.5976850390434265 1.6421260833740234
-19.050413131713867 -0.5713144540786743 1.5696735382080078
-18.772714614868164 -0.5319802761077881 1.4616038799285889
-18.402381896972656 -0.5011122822761536 1.376794695854187
-17.65346336364746 -0.4741111397743225 1.3026096820831299
-17.00067710876465 -0.4614756107330322 1.2678937911987305
-16.31848907470703 -0.4450328946113586 1.2227178812026978
-15.609469413757324 -0.4286579191684723 1.1777279376983643
-14.173601150512695 -0.4008663594722748 1.1013712882995605
-12.459012985229492 -0.39589375257492065 1.0877091884613037
-10.509570121765137 -0.4262546598911286 1.171125054359436
-8.84963607788086 -0.4829434752464294 1.3268762826919556
-7.231689453124999 -0.5189401507377625 1.4257763624191284
-5.893570899963379 -0.5252664089202881 1.4431575536727905
-4.60330057144165 -0.5173360705375671 1.421369194984436
-3.21330189704895 -0.5140762329101562 1.4124128818511963
-1.8169274330139162 -0.5270296931266785 1.4480020999908447