# vtk DataFile Version 4.0
 
ASCII
DATASET UNSTRUCTURED_GRID
POINTS 51 float
0.0032922609243541956 -0.00019209590391255915 0.007483126595616341
0.003229763358831405 -0.002941257320344448 0.010608154349029064
0.003138394095003605 -0.005228366237133741 0.013963959179818628
0.0028620881494134665 -0.007290350738912821 0.017384642735123634
0.0024306110572069883 -0.009165540337562561 0.020843368023633957
0.0019982317462563515 -0.011036304756999016 0.024212433025240898
0.0017444419208914044 -0.013194459490478039 0.02728751301765442
0.001740187988616526 -0.015463896095752716 0.03019191510975361
0.0019156732596457005 -0.017564844340085983 0.033121541142463684
0.00216366327367723 -0.019717073068022728 0.03592250123620033
0.002406609710305929 -0.02184000052511692 0.038651227951049805
0.0025995990727096796 -0.023825753480196 0.04138324409723282
0.002723678248003125 -0.025741675868630406 0.04407140612602234
0.0027798479422926903 -0.027659714221954346 0.04666532948613167
0.002782244235277176 -0.029573583975434307 0.04916941374540329
0.0027508526109158993 -0.03143693134188652 0.051616121083498
0.0027057079132646322 -0.03320665284991264 0.05403563380241395
0.0026627120096236467 -0.03487246856093407 0.05643514171242714
0.002631532493978739 -0.03646264225244522 0.05879485979676247
0.002616326557472348 -0.0380183570086956 0.06108595430850983
0.002617395017296076 -0.03956671059131622 0.06328944861888885
0.002632583025842905 -0.041108231991529465 0.0654049664735794
0.0026584563311189413 -0.04262607917189598 0.06744430959224701
0.0026912044268101454 -0.04410059377551079 0.06942123919725418
0.0027272577863186598 -0.04551694914698601 0.07134613394737244
0.0027636769227683544 -0.04686635732650757 0.07322514802217484
0.0027983631007373333 -0.048145681619644165 0.07506048679351807
0.0028301344718784094 -0.049356792122125626 0.07685083150863647
0.002858696971088648 -0.05050574243068695 0.07859194278717041
0.002884538844227791 -0.05160174518823623 0.08027738332748413
0.002908645896241069 -0.05265503004193307 0.0818999707698822
0.0029320986941456795 -0.053673993796110146 0.08345383405685425
0.002955782227218151 -0.054663360118865974 0.08493567258119583
0.002980233170092106 -0.055623497813940055 0.08634521812200546
0.003005585866048932 -0.05655058100819588 0.08768515288829803
0.00303159118629992 -0.05743727460503578 0.08896061033010483
0.0030576810240745544 -0.058273784816265106 0.0901784598827362
0.003083063056692481 -0.05904977023601532 0.09134592860937119
0.0031068241223692894 -0.059758927673101425 0.09246743470430374
0.0031280354596674442 -0.06040279567241669 0.09354190528392792
0.00314584793522954 -0.06099111959338188 0.09456250816583633
0.0031595712061971426 -0.06153987720608711 0.09551806002855301
0.003168734721839428 -0.062068648636341095 0.0963948592543602
0.003173124277964235 -0.06260142475366592 0.09717608988285065
0.003172800177708268 -0.06316766142845154 0.09784114360809326
0.0031680921092629433 -0.06379737704992294 0.09836898744106293
0.0031595753971487284 -0.06451340764760971 0.09874363988637924
0.003148033283650875 -0.06532423198223114 0.09895916283130646
0.003134404309093952 -0.06621945649385452 0.09902283549308777
0.0031197243370115757 -0.06716879457235336 0.09895585477352142
0.003105060663074255 -0.06812457740306854 0.09879160672426224

CELLS 50 150
2 0 1
2 1 2
2 2 3
2 3 4
2 4 5
2 5 6
2 6 7
2 7 8
2 8 9
2 9 10
2 10 11
2 11 12
2 12 13
2 13 14
2 14 15
2 15 16
2 16 17
2 17 18
2 18 19
2 19 20
2 20 21
2 21 22
2 22 23
2 23 24
2 24 25
2 25 26
2 26 27
2 27 28
2 28 29
2 29 30
2 30 31
2 31 32
2 32 33
2 33 34
2 34 35
2 35 36
2 36 37
2 37 38
2 38 39
2 39 40
2 40 41
2 41 42
2 42 43
2 43 44
2 44 45
2 45 46
2 46 47
2 47 48
2 48 49
2 49 50

CELL_TYPES 50
4
4
4
4
4
4
4
4
4
4
4
4
4
4
4
4
4
4
4
4
4
4
4
4
4
4
4
4
4
4
4
4
4
4
4
4
4
4
4
4
4
4
4
4
4
4
4
4
4
4

POINT_DATA 51

SCALARS zone float
LOOKUP_TABLE default
1.0
1.0
1.0
1.0
1.0
1.0
1.0
1.0
1.0
1.0
1.0
1.0
1.0
1.0
1.0
1.0
1.0
1.0
1.0
1.0
1.0
1.0
1.0
1.0
1.0
1.0
1.0
1.0
1.0
1.0
1.0
1.0
1.0
1.0
1.0
1.0
1.0
1.0
1.0
1.0
1.0
1.0
1.0
1.0
1.0
1.0
1.0
1.0
1.0
1.0
1.0

VECTORS normals float
-3.124873182969168e-5 -0.0013745806645601988 0.0015625139931216836
-7.693334191571921e-5 -0.002518135355785489 0.0032404165249317884
-0.0001838376629166305 -0.0021745467092841864 0.0033882446587085724
-0.0003538915771059692 -0.001968586817383766 0.003439703956246376
-0.0004319281433708965 -0.0018729772418737411 0.003413895145058632
-0.0003430845681577921 -0.0020144598092883825 0.0032220727298408747
-0.00012902190792374313 -0.00221379566937685 0.0029897410422563553
8.561566210119054e-5 -0.002185192657634616 0.0029170135967433453
0.0002117376570822671 -0.0021265880204737186 0.0028652935288846493
0.00024546831264160573 -0.0021375773940235376 0.0027648434042930603
0.0002179679140681401 -0.0020543409045785666 0.0027303711976855993
0.00015853419608902186 -0.0019508382538333533 0.002710089087486267
9.012437658384442e-5 -0.0019169795559719205 0.0026410419959574938
2.9283044568728656e-5 -0.0019159534713253379 0.0025490049738436937
-1.4497647498501465e-5 -0.0018886084435507655 0.0024753969628363848
-3.826815736829303e-5 -0.0018165342044085264 0.0024331083986908197
-4.407023516250774e-5 -0.0017177690751850605 0.0024095093831419945
-3.708776057465002e-5 -0.0016279950505122542 0.002379614394158125
-2.319276609341614e-5 -0.0015729442238807678 0.0023254060652107
-7.068673312460305e-6 -0.0015520344022661448 0.0022472920827567577
8.128289664455224e-6 -0.0015449367929250002 0.0021595065481960773
2.053066054941155e-5 -0.0015296844067052007 0.0020774309523403645
2.9310647732927464e-5 -0.001496180659160018 0.002008135197684169
3.440070213400759e-5 -0.0014454340562224388 0.0019509131088852882
3.623620068538003e-5 -0.0013828828232362866 0.0019019567407667637
3.555265357135795e-5 -0.0013143675168976188 0.0018571763066574931
3.3228800020879135e-5 -0.001245217863470316 0.0018128401134163141
3.0166916985763237e-5 -0.0011800304055213928 0.0017657295102253556
2.720216980378609e-5 -0.0011224756017327309 0.0017132745124399662
2.4974500774987977e-5 -0.0010746433399617672 0.0016540117794647813
2.3779994080541655e-5 -0.0010361248860135674 0.0015882273437455297
2.3568165488541126e-5 -0.0010041638743132353 0.0015178513713181019
2.406723433523439e-5 -0.0009747518924996257 0.0014456905191764235
2.4901799406507052e-5 -0.0009436116670258344 0.0013747398043051362
2.5678929887362756e-5 -0.0009068888030014933 0.0013076980831101537
2.604758265078999e-5 -0.0008616021950729191 0.0012466527987271547
2.573603342170827e-5 -0.0008062475826591254 0.0011926572769880295
2.45715600613039e-5 -0.0007425705553032458 0.0011444890405982733
2.2486185116576962e-5 -0.0006765128928236663 0.0010979878716170788
1.951184640347492e-5 -0.0006160968914628029 0.001047536265105009
1.5767878721817397e-5 -0.0005685409414581954 0.0009880800498649478
1.1443358744145371e-5 -0.0005387632409110665 0.0009161752532236279
6.776487680326682e-6 -0.0005307730752974749 0.0008290146943181753
2.0328297978267074e-6 -0.0005495062796398997 0.0007231422350741923
-2.5160579752991907e-6 -0.0005979770794510841 0.0005964473239146173
-6.612403467443073e-6 -0.0006728747393935919 0.0004512480809353292
-1.002946464723209e-5 -0.0007634272915311158 0.00029508720035664737
-1.2585563126776831e-5 -0.0008530223276466132 0.00013959675561636686
-1.4154468772176187e-5 -0.000922279607038945 -1.6530052562302444e-6
-1.4671891221951226e-5 -0.0009525628411211072 -0.00011561285646166652
-7.331854249059689e-6 -0.0004778938891831786 -8.212432294385508e-5

CELL_DATA 50

VECTORS liftinglineloading               float
0.10400933027267457 -0.07476620376110077 -0.06273629516363144
0.1063249409198761 -0.09356850385665894 -0.07851329445838928
-0.05701946094632149 -0.022586693987250328 -0.018952487036585808
0.24068114161491394 -0.07033597677946091 -0.05901889130473137
-0.06518647074699402 -0.1815088540315628 -0.152304008603096
-1.0175418853759766 -0.45472356677055364 -0.3815583884716034
-2.7581944465637207 -0.9077403545379639 -0.7616845965385437
-4.5439629554748535 -1.34147047996521 -1.1256273984909058
-6.350549221038818 -1.7307713031768799 -1.4522895812988281
-8.642731666564941 -2.135495185852051 -1.7918932437896729
-10.973174095153809 -2.5249757766723633 -2.118706226348877
-12.669594764709473 -2.7468340396881104 -2.3048675060272217
-13.821086883544922 -2.8472647666931152 -2.389138698577881
-14.625802040100098 -2.896381378173828 -2.4303524494171143
-15.161921501159668 -2.8820486068725586 -2.418325901031494
-15.587698936462402 -2.8547818660736084 -2.395446300506592
-15.687376976013184 -2.7244865894317627 -2.2861156463623047
-15.715053558349608 -2.613590717315674 -2.1930630207061768
-15.742593765258789 -2.4982025623321533 -2.096240997314453
-15.292899131774902 -2.3321871757507324 -1.956937313079834
-15.125286102294922 -2.239392042160034 -1.8790730237960815
-15.049348831176758 -2.1542367935180664 -1.8076192140579221
-15.045763969421385 -2.047050952911377 -1.7176796197891233
-15.256695747375488 -2.0216264724731445 -1.696346044540405
-15.53462505340576 -1.939805865287781 -1.6276904344558714
-15.865484237670898 -1.889335036277771 -1.5853403806686401
-16.390522003173828 -1.8655908107757566 -1.5654165744781494
-16.60951805114746 -1.8162959814071655 -1.5240533351898193
-17.039003372192383 -1.7596621513366697 -1.4765318632125854
-17.966760635375977 -1.725067377090454 -1.4475033283233643
-18.290828704833984 -1.6464022397994995 -1.381495475769043
-18.529069900512695 -1.5600553750991821 -1.3090418577194214
-18.67196273803711 -1.46454918384552 -1.2289026975631714
-18.914770126342773 -1.338955044746399 -1.1235166788101196
-18.768177032470703 -1.2799060344696045 -1.0739686489105225
-18.556018829345703 -1.1903929710388184 -0.9988582730293274
-18.2528018951416 -1.120134711265564 -0.9399045705795288
-17.56397819519043 -1.0588704347610474 -0.888497829437256
-16.95901870727539 -1.030019998550415 -0.8642894029617311
-16.25546646118164 -0.9935739040374756 -0.8337075114250184
-15.587371826171877 -0.9566947221755981 -0.8027622103691101
-14.185151100158691 -0.8945199251174928 -0.7505913376808167
-12.492021560668945 -0.8843704462051392 -0.7420749068260193
-10.559107780456543 -0.9530083537101744 -0.7996689677238464
-8.910052299499512 -1.081764817237854 -0.9077084064483643
-7.3049378395080575 -1.1630902290344238 -0.9759486317634583
-5.972316741943359 -1.1783982515335083 -0.9887935519218445
-4.685914993286133 -1.1617997884750366 -0.9748657345771791
-3.2906982898712154 -1.1556425094604492 -0.9696992635726929
-1.87693452835083 -1.1853368282318115 -0.9946156740188599