# vtk DataFile Version 4.0
 
ASCII
DATASET UNSTRUCTURED_GRID
POINTS 51 float
0.0032922609243541956 -0.0035752032417804 -0.006576625630259513
0.003229763358831405 -0.0027568736113607883 -0.01065756008028984
0.003138394095003605 -0.0024540815502405167 -0.014707326889038086
0.0028620881494134665 -0.0023786930833011866 -0.018700718879699707
0.0024306110572069883 -0.002484093187376857 -0.02263365499675274
0.0019982317462563515 -0.00254849623888731 -0.02648673579096794
0.0017444419208914044 -0.0022170187439769506 -0.030228909105062485
0.001740187988616526 -0.0017038309015333652 -0.03387891501188278
0.0019156732596457005 -0.0013491678982973099 -0.037466518580913544
0.00216366327367723 -0.0008857658249326049 -0.040968336164951324
0.002406609710305929 -0.0004116185300517828 -0.044392943382263184
0.0025995990727096796 -5.7914254284696653e-5 -0.04775181785225868
0.002723678248003125 0.0002572433731984347 -0.05103779584169387
0.0027798479422926903 0.0006213498418219388 -0.05424321815371513
0.002782244235277176 0.001026767073199153 -0.05736875534057618
0.0027508526109158993 0.0014171188231557608 -0.060419339686632156
0.0027057079132646322 0.001739988219924271 -0.0633995532989502
0.0026627120096236467 0.0019828728400170803 -0.06631050258874893
0.002631532493978739 0.0021801437251269817 -0.06914916634559631
0.002616326557472348 0.0023818861227482557 -0.07191116362810135
0.002617395017296076 0.00262105418369174 -0.07459362596273422
0.002632583025842905 0.00289828865788877 -0.07719647884368896
0.0026584563311189413 0.003193114418536425 -0.07972152531147003
0.0026912044268101454 0.0034816141705960035 -0.08217085152864456
0.0027272577863186598 0.00374576635658741 -0.0845460370182991
0.0027636769227683544 0.003974881023168564 -0.08684802055358887
0.0027983631007373333 0.004165141377598047 -0.08907712996006012
0.0028301344718784094 0.004318821243941784 -0.09123317152261734
0.002858696971088648 0.004443284589797258 -0.093315489590168
0.002884538844227791 0.004549731500446796 -0.0953231230378151
0.002908645896241069 0.0046506100334227085 -0.09725496917963028
0.0029320986941456795 0.004756125155836344 -0.09911014139652252
0.002955782227218151 0.0048720212653279305 -0.10088812559843063
0.002980233170092106 0.004998754244297743 -0.10258889943361282
0.003005585866048932 0.005131665151566267 -0.10421285778284073
0.00303159118629992 0.005261833779513836 -0.10576079040765762
0.0030576810240745544 0.005377350840717554 -0.10723372548818588
0.003083063056692481 0.005465638358145952 -0.10863278061151505
0.0031068241223692894 0.005519032012671232 -0.10995861142873765
0.0031280354596674442 0.005539405159652233 -0.11121106147766113
0.00314584793522954 0.0055386065505445 -0.11238909512758255
0.0031595712061971426 0.005536066833883524 -0.1134910061955452
0.003168734721839428 0.0055555966682732105 -0.11451471596956252
0.003173124277964235 0.0056263781152665615 -0.1154576763510704
0.003172800177708268 0.005784227512776852 -0.11631674319505693
0.0031680921092629433 0.006065657362341881 -0.11708872765302657
0.0031595753971487284 0.006498432718217374 -0.1177712008357048
0.003148033283650875 0.0070928651839494705 -0.11836326122283936
0.003134404309093952 0.007836313918232918 -0.11886601150035858
0.0031197243370115757 0.008691953495144844 -0.11928267776966094
0.003105060663074255 0.009601813741028309 -0.11961833387613297

CELLS 50 150
2 0 1
2 1 2
2 2 3
2 3 4
2 4 5
2 5 6
2 6 7
2 7 8
2 8 9
2 9 10
2 10 11
2 11 12
2 12 13
2 13 14
2 14 15
2 15 16
2 16 17
2 17 18
2 18 19
2 19 20
2 20 21
2 21 22
2 22 23
2 23 24
2 24 25
2 25 26
2 26 27
2 27 28
2 28 29
2 29 30
2 30 31
2 31 32
2 32 33
2 33 34
2 34 35
2 35 36
2 36 37
2 37 38
2 38 39
2 39 40
2 40 41
2 41 42
2 42 43
2 43 44
2 44 45
2 45 46
2 46 47
2 47 48
2 48 49
2 49 50

CELL_TYPES 50
4
4
4
4
4
4
4
4
4
4
4
4
4
4
4
4
4
4
4
4
4
4
4
4
4
4
4
4
4
4
4
4
4
4
4
4
4
4
4
4
4
4
4
4
4
4
4
4
4
4

POINT_DATA 51

SCALARS zone float
LOOKUP_TABLE default
1.0
1.0
1.0
1.0
1.0
1.0
1.0
1.0
1.0
1.0
1.0
1.0
1.0
1.0
1.0
1.0
1.0
1.0
1.0
1.0
1.0
1.0
1.0
1.0
1.0
1.0
1.0
1.0
1.0
1.0
1.0
1.0
1.0
1.0
1.0
1.0
1.0
1.0
1.0
1.0
1.0
1.0
1.0
1.0
1.0
1.0
1.0
1.0
1.0
1.0
1.0

VECTORS normals float
-3.124873182969168e-5 0.00040916484431363637 -0.0020404672250151634
-7.693334191571921e-5 0.0005605608457699418 -0.004065350629389286
-0.0001838376629166305 0.00018909030768554658 -0.004021579399704933
-0.0003538915771059692 -1.5005713066784665e-5 -0.003963164519518614
-0.0004319281433708965 -8.490165055263788e-5 -0.0038930084556341176
-0.0003430845681577921 0.0001335371343884617 -0.0037976265884935856
-0.00012902190792374313 0.0004223327268846333 -0.0036960893776267767
8.561566210119054e-5 0.00043392545194365084 -0.0036188042722642417
0.0002117376570822671 0.0004090325383003801 -0.003544711042195558
0.00024546831264160573 0.0004687746695708483 -0.0034632133319973946
0.0002179679140681401 0.00041392576531507075 -0.0033917410764843225
0.00015853419608902186 0.0003344309516251087 -0.003322425065562129
9.012437658384442e-5 0.0003396320389583707 -0.003245699219405651
2.9283044568728656e-5 0.0003847618354484439 -0.003165479749441147
-1.4497647498501465e-5 0.000397884490666911 -0.0030880607664585114
-3.826815736829303e-5 0.0003566105442587286 -0.003015400841832161
-4.407023516250774e-5 0.00028287703753449023 -0.002945580752566457
-3.708776057465002e-5 0.0002200777817051858 -0.0028748041950166225
-2.319276609341614e-5 0.00019950659770984203 -0.002800332847982645
-7.068673312460305e-6 0.00022045518562663347 -0.0027222291100770235
8.128289664455224e-6 0.00025820123846642673 -0.0026426559779793024
2.053066054941155e-5 0.00028603008831851184 -0.0025639503728598356
2.9310647732927464e-5 0.0002916628436651081 -0.002487186575308442
3.440070213400759e-5 0.00027632605633698404 -0.002412257483229041
3.623620068538003e-5 0.00024663328076712787 -0.002338584279641509
3.555265357135795e-5 0.00020968756871297956 -0.002265545539557934
3.3228800020879135e-5 0.0001719701976981014 -0.002192574553191662
3.0166916985763237e-5 0.00013907160609960556 -0.0021191819105297327
2.720216980378609e-5 0.00011545507004484534 -0.002044977154582739
2.4974500774987977e-5 0.00010366253991378471 -0.001969737932085991
2.3779994080541655e-5 0.00010319686407456176 -0.0018935076659545305
2.3568165488541126e-5 0.00011070580512750894 -0.0018165797227993608
2.406723433523439e-5 0.00012131460971431807 -0.0017393806483596561
2.4901799406507052e-5 0.0001298217539442703 -0.0016623653937131166
2.5678929887362756e-5 0.0001315396948484704 -0.0015859442064538598
2.604758265078999e-5 0.00012284299009479582 -0.0015104340855032206
2.573603342170827e-5 0.00010190225293627007 -0.0014359952183440328
2.45715600613039e-5 7.08404477336444e-5 -0.0013624419225379825
2.2486185116576962e-5 3.688341530505568e-5 -0.0012891418300569057
1.951184640347492e-5 9.787460840016138e-6 -0.0012152415001764894
1.5767878721817397e-5 -1.6691187738615552e-6 -0.0011399728246033192
1.1443358744145371e-5 8.495059773849789e-6 -0.001062812632881105
6.776487680326682e-6 4.515563341556117e-5 -0.0009833343792706728
2.0328297978267074e-6 0.0001143152912845835 -0.0009010126814246177
-2.5160579752991907e-6 0.00021963968174532056 -0.0008155270479619503
-6.612403467443073e-6 0.0003571026027202606 -0.0007272296934388578
-1.002946464723209e-5 0.000513603852596134 -0.0006372666684910655
-1.2585563126776831e-5 0.0006689406582154334 -0.0005474055069498718
-1.4154468772176187e-5 0.0007995440391823649 -0.00045970824430696666
-1.4671891221951226e-5 0.0008827500278130173 -0.0003761577245313674
-7.331854249059689e-6 0.00045493041398003703 -0.0001678251865087077

CELL_DATA 50

VECTORS liftinglineloading               float
0.09480546414852142 0.09116879105567932 0.01607551798224449
0.07523653656244278 0.09458742290735245 0.01667831465601921
-0.024740703403949738 0.03422480821609497 0.006034757476300001
0.23815752565860748 0.10158631950616835 0.017912408336997032
-0.1112193763256073 0.25296521186828613 0.0446045957505703
-1.0585217475891113 0.6009719967842102 0.10596758127212526
-2.780881643295288 1.1781946420669556 0.2077474892139435
-4.538879871368408 1.7329145669937134 0.30555957555770874
-6.178736209869385 2.217498540878296 0.3910048007965088
-8.355279922485352 2.7351441383361816 0.4822796881198883
-10.907071113586426 3.26423716545105 0.5755730867385864
-12.573402404785156 3.5561466217041016 0.6270446181297302
-13.685690879821776 3.6853830814361572 0.6498324871063232
-14.42235279083252 3.7477352619171143 0.6608268618583679
-14.92800235748291 3.7239062786102295 0.6566251516342163
-15.301821708679201 3.680135726928711 0.6489071846008301
-15.394145965576172 3.501100540161133 0.6173384785652161
-15.368292808532715 3.3503475189208984 0.5907566547393799
-15.422148704528809 3.2107744216918945 0.566146194934845
-14.953193664550783 2.992758274078369 0.5277040600776672
-14.773040771484377 2.872344493865967 0.5064718127250671
-14.783467292785646 2.7775635719299316 0.48975938558578486
-14.703986167907715 2.624863624572754 0.46283426880836487
-14.928642272949217 2.5963687896728516 0.4578098654747009
-15.249718666076662 2.4964146614074707 0.4401852488517761
-15.583991050720213 2.432995557785034 0.42900276184082026
-15.656538009643555 2.3648862838745117 0.41699326038360596
-16.18387794494629 2.3384649753570557 0.41233447194099426
-16.576295852661133 2.266094207763672 0.39957356452941895
-17.48126220703125 2.2277562618255615 0.3928135633468628
-17.79385757446289 2.133915901184082 0.3762669563293457
-18.04109764099121 2.027942657470703 0.3575809895992279
-18.215770721435547 1.9082897901535034 0.336482971906662
-18.42343521118164 1.7493475675582886 0.3084571957588196
-18.283185958862305 1.6735408306121828 0.2950904071331024
-18.071962356567383 1.5561785697937012 0.27439627051353455
-17.755868911743164 1.4622137546539307 0.2578277289867401
-17.094921112060547 1.3814359903335571 0.24358443915843964
-16.482858657836914 1.3410911560058594 0.23647055029869077
-15.806888580322266 1.2919472455978394 0.22780515253543854
-15.204042434692383 1.2426438331604004 0.2191116362810135
-13.79605484008789 1.1614176034927368 0.2047892510890961
-12.133912086486816 1.1401113271713257 0.2010323852300644
-10.220538139343262 1.2242947816848755 0.2158762067556381
-8.593223571777344 1.3794432878494263 0.24323306977748874
-6.989422321319581 1.4816436767578125 0.2612537443637848
-5.678282260894775 1.497652530670166 0.2640765607357025
-4.413292407989502 1.4730544090270996 0.2597392201423645
-3.0629971027374268 1.4621355533599854 0.2578139305114746
-1.718184232711792 1.499150276184082 0.2643406391143799