# vtk DataFile Version 4.0
 
ASCII
DATASET UNSTRUCTURED_GRID
POINTS 51 float
0.0032922609243541956 0.0008435623603872955 -0.007437908556312323
0.003229763358831405 0.0038546265568584204 -0.010311439633369446
0.003138394095003605 0.006425510160624981 -0.01345514040440321
0.0028620881494134665 0.008777780458331108 -0.016683094203472137
0.0024306110572069883 0.010947281494736671 -0.019965222105383873
0.0019982317462563515 0.013104561716318129 -0.023158421739935875
0.0017444419208914044 0.015522514469921589 -0.026033703237771988
0.001740187988616526 0.018036451190710068 -0.028729259967803955
0.0019156732596457005 0.020384738221764565 -0.031464625149965286
0.00216366327367723 0.02277289517223835 -0.03406735137104988
0.002406609710305929 0.025125568732619286 -0.036600664258003235
0.0025995990727096796 0.027341878041625023 -0.039149217307567596
0.002723678248003125 0.029484797269105915 -0.041660163551568985
0.0027798479422926903 0.03162161260843277 -0.04407704994082451
0.002782244235277176 0.033746443688869476 -0.046404801309108734
0.0027508526109158993 0.03581594303250313 -0.04867979884147644
0.0027057079132646322 0.037789806723594666 -0.050935860723257065
0.0026627120096236467 0.03965841606259346 -0.05318105220794678
0.002631532493978739 0.0414482019841671 -0.05539320036768913
0.002616326557472348 0.04319767653942108 -0.05753998458385468
0.002617395017296076 0.04493218660354614 -0.05960014462471008
0.002632583025842905 0.04665222018957138 -0.06157326325774192
0.0026584563311189413 0.048342034220695496 -0.06347255408763885
0.0026912044268101454 0.04998323693871498 -0.06531345099210739
0.0027272577863186598 0.05156196653842926 -0.06710757315158844
0.0027636769227683544 0.05307000875473022 -0.06886183470487595
0.0027983631007373333 0.054504428058862686 -0.0705786868929863
0.0028301344718784094 0.055866967886686325 -0.0722566619515419
0.002858696971088648 0.0571632944047451 -0.07389101386070251
0.002884538844227791 0.05840202048420906 -0.07547451555728912
0.002908645896241069 0.05959271639585494 -0.07699912786483765
0.0029320986941456795 0.06074322760105133 -0.078458271920681
0.002955782227218151 0.06185797974467277 -0.07984823733568192
0.002980233170092106 0.06293731182813644 -0.08116874098777771
0.003005585866048932 0.06397765129804611 -0.08242277801036835
0.00303159118629992 0.06497213989496231 -0.08361610025167465
0.0030576810240745544 0.06591160595417023 -0.08475640416145325
0.003083063056692481 0.06678639352321625 -0.08585180342197418
0.0031068241223692894 0.06759059429168701 -0.08690723776817322
0.0031280354596674442 0.06832566112279892 -0.08792150020599365
0.00314584793522954 0.06900069862604141 -0.08888693898916245
0.0031595712061971426 0.06963064521551132 -0.08979103714227676
0.003168734721839428 0.07023382186889648 -0.09061840921640396
0.003173124277964235 0.07083266228437424 -0.09135023504495621
0.003172800177708268 0.07145470380783081 -0.09196340292692184
0.0031680921092629433 0.07212803512811661 -0.0924343541264534
0.0031595753971487284 0.07287399470806122 -0.09274517744779587
0.003148033283650875 0.07370051741600037 -0.0928892120718956
0.003134404309093952 0.07459788024425507 -0.09287461638450623
0.0031197243370115757 0.07553776353597641 -0.09272515028715134
0.003105060663074255 0.0764755979180336 -0.09247822314500809

CELLS 50 150
2 0 1
2 1 2
2 2 3
2 3 4
2 4 5
2 5 6
2 6 7
2 7 8
2 8 9
2 9 10
2 10 11
2 11 12
2 12 13
2 13 14
2 14 15
2 15 16
2 16 17
2 17 18
2 18 19
2 19 20
2 20 21
2 21 22
2 22 23
2 23 24
2 24 25
2 25 26
2 26 27
2 27 28
2 28 29
2 29 30
2 30 31
2 31 32
2 32 33
2 33 34
2 34 35
2 35 36
2 36 37
2 37 38
2 38 39
2 39 40
2 40 41
2 41 42
2 42 43
2 43 44
2 44 45
2 45 46
2 46 47
2 47 48
2 48 49
2 49 50

CELL_TYPES 50
4
4
4
4
4
4
4
4
4
4
4
4
4
4
4
4
4
4
4
4
4
4
4
4
4
4
4
4
4
4
4
4
4
4
4
4
4
4
4
4
4
4
4
4
4
4
4
4
4
4

POINT_DATA 51

SCALARS zone float
LOOKUP_TABLE default
1.0
1.0
1.0
1.0
1.0
1.0
1.0
1.0
1.0
1.0
1.0
1.0
1.0
1.0
1.0
1.0
1.0
1.0
1.0
1.0
1.0
1.0
1.0
1.0
1.0
1.0
1.0
1.0
1.0
1.0
1.0
1.0
1.0
1.0
1.0
1.0
1.0
1.0
1.0
1.0
1.0
1.0
1.0
1.0
1.0
1.0
1.0
1.0
1.0
1.0
1.0

VECTORS normals float
-3.124873182969168e-5 0.001505532069131732 -0.0014367655385285616
-7.693334191571921e-5 0.002790973987430334 -0.0030086159240454435
-0.0001838376629166305 0.002461576834321022 -0.003185827052220702
-0.0003538915771059692 0.0022608856670558453 -0.0032550410833209753
-0.0004319281433708965 0.002163390628993511 -0.003237663535401225
-0.0003430845681577921 0.0022876164875924587 -0.0030342398677021265
-0.00012902190792374313 0.002465944504365325 -0.00278541911393404
8.561566210119054e-5 0.002431111875921488 -0.0027154614217579365
0.0002117376570822671 0.002368222689256072 -0.0026690459344536066
0.00024546831264160573 0.0023704152554273605 -0.0025680202525109053
0.0002179679140681401 0.002284490969032049 -0.0025409336667507887
0.00015853419608902186 0.0021796145010739565 -0.002529749646782875
9.012437658384442e-5 0.002139866817742586 -0.0024639160837978125
2.9283044568728656e-5 0.0021308232098817825 -0.0023723188787698746
-1.4497647498501465e-5 0.0020971668418496847 -0.0023013742174953222
-3.826815736829303e-5 0.0020216810517013073 -0.0022655283100903034
-4.407023516250774e-5 0.0019212350016459825 -0.002250626916065812
-3.708776057465002e-5 0.0018291970482096076 -0.0022286702878773212
-2.319276609341614e-5 0.0017696311697363853 -0.002179466187953949
-7.068673312460305e-6 0.0017419928917661307 -0.002103471662849188
8.128289664455224e-6 0.0017272712429985404 -0.002016638871282339
2.053066054941155e-5 0.0017049235757440329 -0.0019362049642950296
2.9310647732927464e-5 0.0016655077924951913 -0.0018700929358601568
3.440070213400759e-5 0.001609967090189457 -0.0018175113946199417
3.623620068538003e-5 0.0015433869557455182 -0.0017741930205374956
3.555265357135795e-5 0.0014712295960634947 -0.0017355544259771705
3.3228800020879135e-5 0.0013984788674861193 -0.001697413856163621
3.0166916985763237e-5 0.0013294335221871734 -0.0016561639495193958
2.720216980378609e-5 0.0012675259495154023 -0.0016089248238131404
2.4974500774987977e-5 0.0012147106463089585 -0.0015540564199909568
2.3779994080541655e-5 0.0011706053046509624 -0.0014918793458491564
2.3568165488541126e-5 0.0011326322564855218 -0.0014245568308979273
2.406723433523439e-5 0.0010970429284498096 -0.0013552340678870678
2.4901799406507052e-5 0.001059837406501174 -0.0012872673105448484
2.5678929887362756e-5 0.0010174112394452095 -0.0012236813781782985
2.604758265078999e-5 0.0009669765131548047 -0.0011668154038488865
2.573603342170827e-5 0.0009071264648810029 -0.0011178497225046158
2.45715600613039e-5 0.0008394936448894442 -0.0010754147078841925
2.2486185116576962e-5 0.000769634498283267 -0.0010348476935178041
1.951184640347492e-5 0.0007050512940622866 -0.0009898536372929811
1.5767878721817397e-5 0.0006524943164549768 -0.0009347684681415558
1.1443358744145371e-5 0.0006165630184113979 -0.0008657326106913388
6.776487680326682e-6 0.0006010067299939692 -0.00077960011549294
2.0328297978267074e-6 0.0006104412605054677 -0.0006724978447891772
-2.5160579752991907e-6 0.0006476853741332889 -0.0005420605302788317
-6.612403467443073e-6 0.0007096431218087673 -0.00039088603807613254
-1.002946464723209e-5 0.0007862407364882529 -0.00022742724104318765
-1.2585563126776831e-5 0.0008619430009275675 -6.47197593934834e-5
-1.4154468772176187e-5 0.0009186259703710675 8.202868048101664e-5
-1.4671891221951226e-5 0.0009388616890646518 0.00019819423323497176
-7.331854249059689e-6 0.00046891774400137365 0.00012346300354693085

CELL_DATA 50

VECTORS liftinglineloading               float
0.10557595640420915 0.06963828206062317 0.06963828206062317
0.11129699647426605 0.08919508755207062 0.08919508755207062
-0.06086788326501846 0.020836200565099716 0.020836200565099716
0.24101775884628296 0.06442562490701675 0.06442562490701675
-0.06294258683919907 0.16741177439689636 0.16741177439689636
-1.0177310705184937 0.41982442140579224 0.41982442140579224
-2.7667911052703857 0.839637279510498 0.839637279510498
-4.561596870422363 1.2409570217132568 1.2409570217132568
-6.384628772735596 1.6001503467559814 1.6001503467559814
-8.67678451538086 1.973531126976013 1.973531126976013
-11.023655891418457 2.3342041969299316 2.3342041969299316
-12.731547355651855 2.5382161140441895 2.5382161140441895
-13.898282051086426 2.630777597427368 2.630777597427368
-14.677021980285645 2.675507068634033 2.675507068634033
-15.234437942504883 2.6622250080108643 2.6622250080108643
-15.670110702514648 2.637955665588379 2.637955665588379
-15.773807525634766 2.519199848175049 2.519199848175049
-15.751395225524904 2.414520502090454 2.414520502090454
-15.813340187072752 2.308812379837036 2.308812379837036
-15.389562606811523 2.1567323207855225 2.1567323207855225
-15.239611625671387 2.071187734603882 2.071187734603882
-15.151148796081541 1.9902386665344238 1.9902386665344238
-15.189058303833006 1.8949394226074217 1.8949394226074217
-15.391999244689941 1.8694502115249634 1.8694502115249634
-15.672958374023438 1.7927449941635132 1.7927449941635132
-16.02657127380371 1.7457239627838135 1.7457239627838135
-16.503582000732422 1.7231943607330324 1.7231943607330324
-16.73697280883789 1.6777364015579224 1.6777364015579224
-17.171161651611328 1.6251987218856812 1.6251987218856812
-18.09679412841797 1.5920573472976685 1.5920573472976685
-18.35012435913086 1.5187937021255493 1.5187937021255493
-18.590059280395508 1.4386287927627563 1.4386287927627563
-18.736438751220703 1.350016713142395 1.350016713142395
-18.9891357421875 1.233652114868164 1.233652114868164
-18.885055541992188 1.177821159362793 1.177821159362793
-18.666112899780273 1.0956708192825317 1.0956708192825317
-18.347808837890625 1.0312883853912354 1.0312883853912354
-17.642261505126953 0.9752080440521239 0.9752080440521239
-17.02700424194336 0.9491025209426879 0.9491025209426879
-16.356246948242188 0.9155387878417968 0.9155387878417968
-15.676424026489258 0.881659209728241 0.881659209728241
-14.303862571716307 0.8240938186645507 0.8240938186645507
-12.595709800720215 0.8163003325462341 0.8163003325462341
-10.6543550491333 0.880349099636078 0.880349099636078
-8.998488426208496 1.0008947849273682 1.0008947849273682
-7.392795562744141 1.076257348060608 1.076257348060608
-6.0557966232299805 1.0908925533294678 1.0908925533294678
-4.765870571136475 1.0759925842285156 1.0759925842285156
-3.361743450164795 1.0707008838653564 1.0707008838653564
-1.9316296577453613 1.0982449054718018 1.0982449054718018