# vtk DataFile Version 4.0
 
ASCII
DATASET UNSTRUCTURED_GRID
POINTS 51 float
0.0032922609243541956 0.005427201744168997 -0.005155537277460098
0.003229763358831405 0.009580881334841251 -0.005421314854174852
0.003138394095003605 0.013571023941040039 -0.006176996976137161
0.0028620881494134665 0.017447855323553085 -0.007137743290513755
0.0024306110572069883 0.02121950127184391 -0.008257471024990082
0.0019982317462563515 0.02492462284862995 -0.009316929616034031
0.0017444419208914044 0.028625076636672016 -0.009965293109416962
0.001740187988616526 0.03228353336453438 -0.01041428279131651
0.0019156732596457005 0.03584068641066551 -0.011000243946909904
0.00216366327367723 0.03934312239289284 -0.011458969675004482
0.002406609710305929 0.04277375712990761 -0.011887332424521446
0.0025995990727096796 0.046109724789857864 -0.012415020726621151
0.002723678248003125 0.04936530441045761 -0.01296107564121485
0.0027798479422926903 0.052555739879608154 -0.013438999652862547
0.002782244235277176 0.05567970871925355 -0.013856345787644385
0.0027508526109158993 0.05872737616300582 -0.01426884438842535
0.0027057079132646322 0.06168961152434349 -0.014728313311934471
0.0026627120096236467 0.06456422805786133 -0.015247112140059473
0.002631532493978739 0.06735722720623016 -0.015791263431310654
0.002616326557472348 0.0700773298740387 -0.01631125435233116
0.002617395017296076 0.07273028790950775 -0.016774507239460945
0.002632583025842905 0.07531620562076569 -0.017180386930704117
0.0026584563311189413 0.07783151417970657 -0.01754913665354252
0.0026912044268101454 0.08027205616235733 -0.01790440082550049
0.0027272577863186598 0.08263467997312546 -0.01826399192214012
0.0027636769227683544 0.08491752296686172 -0.018638482317328453
0.0027983631007373333 0.08711991459131241 -0.019031640142202377
0.0028301344718784094 0.08924226462841034 -0.01944122090935707
0.002858696971088648 0.09128585457801819 -0.01985994353890419
0.002884538844227791 0.09325262159109116 -0.020276736468076706
0.002908645896241069 0.09514474868774414 -0.02067929320037365
0.0029320986941456795 0.09696401655673981 -0.021057527512311935
0.002955782227218151 0.09871142357587814 -0.02140575833618641
0.002980233170092106 0.10038703680038452 -0.021723534911870956
0.003005585866048932 0.10199006646871567 -0.022015465423464775
0.00303159118629992 0.10351894050836562 -0.022290365770459175
0.0030576810240745544 0.10497158765792847 -0.022560007870197296
0.003083063056692481 0.10634581744670867 -0.022836830466985703
0.0031068241223692894 0.10764029622077943 -0.023128407076001167
0.0031280354596674442 0.10885533690452576 -0.023432886227965355
0.00314584793522954 0.10999302566051485 -0.023738553747534752
0.0031595712061971426 0.11105673760175705 -0.024026203900575638
0.003168734721839428 0.11205062270164488 -0.024272296577692032
0.003173124277964235 0.11297976225614549 -0.024447981268167496
0.003172800177708268 0.1138504147529602 -0.024517854675650597
0.0031680921092629433 0.11466893553733824 -0.02444581873714924
0.0031595753971487284 0.11544016748666763 -0.024204427376389503
0.003148033283650875 0.1161658987402916 -0.0237834844738245
0.003134404309093952 0.11684393882751463 -0.02319549024105072
0.0031197243370115757 0.11746786534786224 -0.02247684821486473
0.003105060663074255 0.11802756786346436 -0.021684862673282623

CELLS 50 150
2 0 1
2 1 2
2 2 3
2 3 4
2 4 5
2 5 6
2 6 7
2 7 8
2 8 9
2 9 10
2 10 11
2 11 12
2 12 13
2 13 14
2 14 15
2 15 16
2 16 17
2 17 18
2 18 19
2 19 20
2 20 21
2 21 22
2 22 23
2 23 24
2 24 25
2 25 26
2 26 27
2 27 28
2 28 29
2 29 30
2 30 31
2 31 32
2 32 33
2 33 34
2 34 35
2 35 36
2 36 37
2 37 38
2 38 39
2 39 40
2 40 41
2 41 42
2 42 43
2 43 44
2 44 45
2 45 46
2 46 47
2 47 48
2 48 49
2 49 50

CELL_TYPES 50
4
4
4
4
4
4
4
4
4
4
4
4
4
4
4
4
4
4
4
4
4
4
4
4
4
4
4
4
4
4
4
4
4
4
4
4
4
4
4
4
4
4
4
4
4
4
4
4
4
4

POINT_DATA 51

SCALARS zone float
LOOKUP_TABLE default
1.0
1.0
1.0
1.0
1.0
1.0
1.0
1.0
1.0
1.0
1.0
1.0
1.0
1.0
1.0
1.0
1.0
1.0
1.0
1.0
1.0
1.0
1.0
1.0
1.0
1.0
1.0
1.0
1.0
1.0
1.0
1.0
1.0
1.0
1.0
1.0
1.0
1.0
1.0
1.0
1.0
1.0
1.0
1.0
1.0
1.0
1.0
1.0
1.0
1.0
1.0

VECTORS normals float
-3.124873182969168e-5 0.0020768395625054836 -0.00013288889022078365
-7.693334191571921e-5 0.0040719108656048775 -0.0005107300239615142
-0.0001838376629166305 0.003933487460017204 -0.0008582141017541288
-0.0003538915771059692 0.003824239131063223 -0.0010402367915958166
-0.0004319281433708965 0.0037383832968771458 -0.0010895933955907822
-0.0003430845681577921 0.0037027876824140544 -0.0008539111586287617
-0.00012902190792374313 0.0036794559564441442 -0.0005486762383952737
8.561566210119054e-5 0.003607804654166102 -0.0005174756515771151
0.0002117376570822671 0.003529793350026011 -0.0005223436746746302
0.00024546831264160573 0.0034665351267904048 -0.0004435440350789577
0.0002179679140681401 0.0033833023626357317 -0.0004780256131198258
0.00015853419608902186 0.003295773407444358 -0.000536871375516057
9.012437658384442e-5 0.0032230077777057886 -0.000511989404913038
2.9283044568728656e-5 0.003157202387228608 -0.00044763507321476936
-1.4497647498501465e-5 0.0030858179088681936 -0.0004149220767430961
-3.826815736829303e-5 0.0030049511697143316 -0.0004359838494565338
-4.407023516250774e-5 0.0029184266459196806 -0.000489134166855365
-3.708776057465002e-5 0.0028338078409433365 -0.000531475234311074
-2.319276609341614e-5 0.0027565499767661095 -0.0005320709315128624
-7.068673312460305e-6 0.0026865294203162193 -0.0004916213802061975
8.128289664455224e-6 0.0026194369420409203 -0.00043456643470562994
2.053066054941155e-5 0.002550615696236491 -0.0003873152891173959
2.9310647732927464e-5 0.002477925503626466 -0.00036200653994455934
3.440070213400759e-5 0.0024015801027417183 -0.0003574276634026319
3.623620068538003e-5 0.002322732238098979 -0.0003670406877063215
3.555265357135795e-5 0.002242620103061199 -0.000383823731681332
3.3228800020879135e-5 0.002162373624742031 -0.0004013695870526135
3.0166916985763237e-5 0.002082966733723879 -0.0004141517565585673
2.720216980378609e-5 0.0020051782485097647 -0.0004177579830866307
2.4974500774987977e-5 0.0019294505473226307 -0.00040967535460367793
2.3779994080541655e-5 0.0018556972499936817 -0.00039039531839080155
2.3568165488541126e-5 0.0017833340680226684 -0.0003632318403106183
2.406723433523439e-5 0.0017115112859755757 -0.00033300393261015415
2.4901799406507052e-5 0.0016393220284953716 -0.00030485366005450487
2.5678929887362756e-5 0.0015659494092687964 -0.00028341496363282204
2.604758265078999e-5 0.0014907614095136523 -0.00027227189275436103
2.573603342170827e-5 0.001413439167663455 -0.0002732329012360424
2.45715600613039e-5 0.0013343526516109705 -0.00028419928275980055
2.2486185116576962e-5 0.0012547614751383662 -0.0002980278222821653
1.951184640347492e-5 0.00117636623326689 -0.0003050736850127578
1.5767878721817397e-5 0.001100697205401957 -0.0002966589236166328
1.1443358744145371e-5 0.0010287968907505274 -0.00026687057106755674
6.776487680326682e-6 0.0009615151793695986 -0.00021088865469209847
2.0328297978267074e-6 0.0008998984121717512 -0.00012277915084268898
-2.5160579752991907e-6 0.0008445855928584933 1.0816985422934522e-6
-6.612403467443073e-6 0.000794874911662191 0.0001567137223901227
-1.002946464723209e-5 0.0007484827656298876 0.00033116646227426827
-1.2585563126776831e-5 0.0007018877076916397 0.0005044680438004434
-1.4154468772176187e-5 0.000650981324724853 0.0006533190025947988
-1.4671891221951226e-5 0.0005918130045756698 0.0007553142495453358
-7.331854249059689e-6 0.0002798513451125473 0.00039599265437573195

CELL_DATA 50

VECTORS liftinglineloading               float
0.08653988689184189 0.007740981411188841 0.08847982436418533
0.029446979984641075 0.004364657215774059 0.049888260662555695
0.033246126025915146 0.0050967419520020485 0.058256026357412345
0.20471979677677155 0.011028344742953777 0.1260545551776886
-0.1827445924282074 0.025158267468214035 0.2875603139400482
-1.1886143684387207 0.0575764738023281 0.6581020951271057
-2.902825355529785 0.10831090062856674 1.2379992008209229
-4.63176965713501 0.1570894867181778 1.7955409288406372
-6.374789237976074 0.20212729275226593 2.3103256225585938
-8.560591697692871 0.24845404922962186 2.8398427963256836
-10.769716262817383 0.29236453771591187 3.341741800308228
-12.430642127990723 0.3195324242115021 3.6522722244262695
-13.504631042480467 0.33091574907302856 3.7823843955993657
-14.215449333190918 0.3360462784767151 3.841026544570923
-14.691686630249023 0.3329228460788727 3.8053255081176762
-14.980223655700684 0.3274351954460144 3.74260139465332
-15.014025688171388 0.3096590042114258 3.5394186973571777
-14.969449043273926 0.29601114988327026 3.3834228515625
-14.995590209960936 0.28402000665664673 3.246363639831543
-14.484664916992188 0.26390987634658813 3.0165038108825684
-14.305034637451174 0.25315049290657043 2.8935234546661377
-14.464615821838379 0.24656759202480316 2.8182804584503174
-14.329740524291992 0.23153583705425262 2.6464667320251465
-14.639337539672852 0.2297547161579132 2.626108407974243
-15.056358337402344 0.22152860462665555 2.532083511352539
-15.442127227783203 0.21607455611228943 2.469743490219116
-15.670170783996582 0.21046105027198792 2.405580759048462
-16.261445999145508 0.20816639065742493 2.379352569580078
-17.64366340637207 0.20300805568695068 2.320392608642578
-18.55669593811035 0.1983335018157959 2.2669622898101807
-18.808490753173828 0.18865734338760376 2.1563632488250732
-19.00982666015625 0.17828993499279022 2.037863254547119
-19.12427520751953 0.16696538031101227 1.9084229469299319
-19.367189407348633 0.15228193998336792 1.7405905723571777
-19.199005126953125 0.1453905552625656 1.6618216037750242
-18.971614837646484 0.13514962792396545 1.5447672605514526
-18.649763107299805 0.12717439234256744 1.4536099433898926
-17.927444458007812 0.12021133303642273 1.3740217685699463
-17.311397552490234 0.11701653152704239 1.3375051021575928
-16.644960403442383 0.11286817491054535 1.2900891304016113
-15.95457172393799 0.10866460204124452 1.242042064666748
-14.53963279724121 0.10162052512168884 1.1615279912948608
-12.814075469970703 0.10094209760427475 1.1537734270095825
-10.834274291992188 0.10894639790058136 1.2452629804611206
-9.140145301818848 0.12406577169895171 1.4180783033370972
-7.507894039154053 0.13333585858345032 1.5240358114242554
-6.1444525718688965 0.1351160705089569 1.5443838834762573
-4.831839561462402 0.13322339951992035 1.5227503776550293
-3.4039480686187744 0.13250084221363068 1.5144915580749512
-1.951307773590088 0.13581006228923798 1.5523160696029663