# vtk DataFile Version 4.0
 
ASCII
DATASET UNSTRUCTURED_GRID
POINTS 51 float
0.0032922609243541956 0.004449500702321529 -0.006019636522978544
0.003229763358831405 0.008493924513459206 -0.007002655416727066
0.003138394095003605 0.012292224913835526 -0.008439738303422928
0.0028620881494134665 0.01594332791864872 -0.010059093125164509
0.0024306110572069883 0.01946323551237583 -0.011816749349236488
0.0019982317462563515 0.022928092628717422 -0.013503500260412691
0.0017444419208914044 0.026459742337465283 -0.014784590341150759
0.001740187988616526 0.029984652996063232 -0.01586204394698143
0.0019156732596457005 0.03338601440191269 -0.017056796699762344
0.00216366327367723 0.036755580455064774 -0.018116744235157967
0.002406609710305929 0.04005971550941467 -0.019134322181344032
0.0025995990727096796 0.04325336962938309 -0.0202332790941
0.002723678248003125 0.046364665031433105 -0.02133636176586151
0.0027798479422926903 0.049423642456531525 -0.022361040115356445
0.002782244235277176 0.05242767930030823 -0.023314516991376877
0.0027508526109158993 0.05535741895437241 -0.02424997091293335
0.0027057079132646322 0.058194860816001885 -0.0252168457955122
0.0026627120096236467 0.060935720801353455 -0.026226935908198357
0.002631532493978739 0.06359179317951202 -0.02724781818687916
0.002616326557472348 0.0661802813410759 -0.02823225036263466
0.002617395017296076 0.06871248781681061 -0.029149144887924194
0.002632583025842905 0.07118863612413406 -0.029997900128364566
0.0026584563311189413 0.07360170781612396 -0.03079782798886299
0.0026912044268101454 0.0759434774518013 -0.031571488827466965
0.0027272577863186598 0.07820776104927063 -0.032335881143808365
0.0027636769227683544 0.08039089292287827 -0.03310109302401543
0.0027983631007373333 0.08249156177043915 -0.033870723098516464
0.0028301344718784094 0.08451054245233536 -0.034642621874809265
0.002858696971088648 0.08645036816596985 -0.035409849137067795
0.002884538844227791 0.08831489086151123 -0.03616183623671532
0.002908645896241069 0.09010836482048035 -0.03688684105873108
0.0029320986941456795 0.09183431416749954 -0.037575241178274155
0.002955782227218151 0.09349469840526581 -0.03822161257266998
0.002980233170092106 0.09508968144655228 -0.03882553055882454
0.003005585866048932 0.09661766141653061 -0.03939139097929001
0.00303159118629992 0.09807557612657547 -0.03992759808897972
0.0030576810240745544 0.09945932775735855 -0.040445394814014435
0.003083063056692481 0.10076460987329483 -0.04095664620399475
0.0031068241223692894 0.1019887924194336 -0.04146857559680939
0.0031280354596674442 0.10313250869512557 -0.04197942093014717
0.00314584793522954 0.10419982671737671 -0.04247800260782242
0.0031595712061971426 0.10519742965698242 -0.042945992201566696
0.003168734721839428 0.10613347589969635 -0.04336092993617058
0.003173124277964235 0.10701800137758255 -0.04369529336690903
0.003172800177708268 0.10786329209804534 -0.043915290385484695
0.0031680921092629433 0.10868188738822937 -0.0439864844083786
0.0031595753971487284 0.10948331654071806 -0.04388268291950226
0.003148033283650875 0.11027111858129501 -0.04359415918588638
0.003134404309093952 0.11104096472263336 -0.04313283786177635
0.0031197243370115757 0.11178019642829894 -0.042533453553915024
0.003105060663074255 0.11246892809867859 -0.04185069352388382

CELLS 50 150
2 0 1
2 1 2
2 2 3
2 3 4
2 4 5
2 5 6
2 6 7
2 7 8
2 8 9
2 9 10
2 10 11
2 11 12
2 12 13
2 13 14
2 14 15
2 15 16
2 16 17
2 17 18
2 18 19
2 19 20
2 20 21
2 21 22
2 22 23
2 23 24
2 24 25
2 25 26
2 26 27
2 27 28
2 28 29
2 29 30
2 30 31
2 31 32
2 32 33
2 33 34
2 34 35
2 35 36
2 36 37
2 37 38
2 38 39
2 39 40
2 40 41
2 41 42
2 42 43
2 43 44
2 44 45
2 45 46
2 46 47
2 47 48
2 48 49
2 49 50

CELL_TYPES 50
4
4
4
4
4
4
4
4
4
4
4
4
4
4
4
4
4
4
4
4
4
4
4
4
4
4
4
4
4
4
4
4
4
4
4
4
4
4
4
4
4
4
4
4
4
4
4
4
4
4

POINT_DATA 51

SCALARS zone float
LOOKUP_TABLE default
1.0
1.0
1.0
1.0
1.0
1.0
1.0
1.0
1.0
1.0
1.0
1.0
1.0
1.0
1.0
1.0
1.0
1.0
1.0
1.0
1.0
1.0
1.0
1.0
1.0
1.0
1.0
1.0
1.0
1.0
1.0
1.0
1.0
1.0
1.0
1.0
1.0
1.0
1.0
1.0
1.0
1.0
1.0
1.0
1.0
1.0
1.0
1.0
1.0
1.0
1.0

VECTORS normals float
-3.124873182969168e-5 0.002022211905568838 -0.0004915093886666
-7.693334191571921e-5 0.003921362105756998 -0.00121005077380687
-0.0001838376629166305 0.003724701702594757 -0.0015282188542187214
-0.0003538915771059692 0.0035855050664395094 -0.0016885054064914584
-0.0004319281433708965 0.003492383053526282 -0.0017222035676240923
-0.0003430845681577921 0.0034982538782060146 -0.001483920612372458
-0.00012902190792374313 0.0035282801836729054 -0.001179271494038403
8.561566210119054e-5 0.0034631353337317705 -0.0011361027136445045
0.0002117376570822671 0.0033854639623314142 -0.00112735026050359
0.00024546831264160573 0.0033368500880897045 -0.0010387630900368094
0.0002179679140681401 0.0032488941214978695 -0.0010582675458863378
0.00015853419608902186 0.003152476390823722 -0.001101020141504705
9.012437658384442e-5 0.0030851371120661497 -0.0010638805106282234
2.9283044568728656e-5 0.00303150643594563 -0.0009890769142657518
-1.4497647498501465e-5 0.0029668868519365788 -0.0009444651077501477
-3.826815736829303e-5 0.0028835914563387632 -0.000951164576690644
-4.407023516250774e-5 0.002789151854813099 -0.0009884826140478253
-3.708776057465002e-5 0.002698466181755066 -0.0010154865449294448
-2.319276609341614e-5 0.0026222786400467157 -0.0010026574600487947
-7.068673312460305e-6 0.00256034592166543 -0.0009506635251455008
8.128289664455224e-6 0.002504180185496807 -0.0008828248246572913
2.053066054941155e-5 0.00244460953399539 -0.0008243409101851285
2.9310647732927464e-5 0.0023774185683578253 -0.0007867941167205572
3.440070213400759e-5 0.0023030280135571957 -0.0007690275670029223
3.623620068538003e-5 0.002223708899691701 -0.000764802738558501
3.555265357135795e-5 0.0021418994292616844 -0.0007674194639548659
3.3228800020879135e-5 0.00205982499755919 -0.0007707640761509538
3.0166916985763237e-5 0.0019794052932411432 -0.0007695632521063089
2.720216980378609e-5 0.0019021721091121435 -0.0007596068317070603
2.4974500774987977e-5 0.0018289984436705709 -0.0007384970085695386
2.3779994080541655e-5 0.001759713632054627 -0.0007067027618177235
2.3568165488541126e-5 0.0016931666759774089 -0.0006673862226307392
2.406723433523439e-5 0.0016276839887723327 -0.0006251456798054278
2.4901799406507052e-5 0.0015614797594025731 -0.0005848875152878463
2.5678929887362756e-5 0.0014929446624591947 -0.0005510335322469473
2.604758265078999e-5 0.001420833868905902 -0.0005270034889690578
2.573603342170827e-5 0.0013445194344967604 -0.0005145230097696185
2.45715600613039e-5 0.0012647301191464067 -0.0005115895764902234
2.2486185116576962e-5 0.0011839468497782946 -0.0005113871302455664
1.951184640347492e-5 0.0011055191280320287 -0.0005047128070145845
1.5767878721817397e-5 0.0010324608301743865 -0.00048328607226721937
1.1443358744145371e-5 0.0009668255224823952 -0.0004414648865349591
6.776487680326682e-6 0.0009102871408686042 -0.0003746501461137086
2.0328297978267074e-6 0.0008649065275676548 -0.00027717958437278867
-2.5160579752991907e-6 0.0008319422486238182 -0.0001455954770790413
-6.612403467443073e-6 0.000810011988505721 1.6304320524795912e-5
-1.002946464723209e-5 0.0007946180994622409 0.000196162611246109
-1.2585563126776831e-5 0.0007788244402036071 0.00037492255796678364
-1.4154468772176187e-5 0.0007545390981249511 0.000530351884663105
-1.4671891221951226e-5 0.0007139809895306826 0.0006410721107386053
-7.331854249059689e-6 0.0003443631867412478 0.0003413809754420072

CELL_DATA 50

VECTORS liftinglineloading               float
0.08123461902141571 0.022352667525410652 0.08342128992080688
0.00197868375107646 0.006005072966217995 0.02241123653948307
0.07166203111410141 0.021155817434191704 0.07895458489656448
0.14111030101776123 0.038588907569646835 0.14401575922966003
-0.26678118109703064 0.08281140774488449 0.3090563714504242
-1.431536316871643 0.191304549574852 0.7139582633972168
-3.1685891151428223 0.3408137559890747 1.2719342708587646
-4.934029579162598 0.4839055836200714 1.8059601783752441
-6.700444221496582 0.6136004328727722 2.289987802505493
-8.941731452941895 0.7515625357627869 2.8048696517944336
-11.196941375732422 0.8834654688835145 3.2971382141113277
-12.822657585144043 0.9599883556365966 3.5827252864837646
-13.869427680969238 0.9921758174896241 3.702850580215454
-14.530240058898924 1.0061755180358887 3.7550981044769287
-14.947693824768066 0.996009349822998 3.7171576023101807
-15.186081886291504 0.9790046811103822 3.6536953449249268
-15.14884090423584 0.9246542453765869 3.4508566856384277
-15.02942180633545 0.8818803429603578 3.291222333908081
-14.979900360107424 0.8443486094474791 3.1511518955230713
-14.391278266906738 0.782734751701355 2.921205759048462
-14.138258934020996 0.7492426037788391 2.7962114810943604
-14.282961845397951 0.7306655645370483 2.7268810272216797
-14.047479629516602 0.6828913688659668 2.5485854148864746
-14.327148437499998 0.6778560876846313 2.5297932624816895
-14.730422019958496 0.6541213393211365 2.441214084625244
-15.086639404296877 0.6382676959037781 2.382047653198242
-15.23566722869873 0.620806097984314 2.316879987716675
-15.785796165466309 0.6151732802391052 2.2958579063415527
-16.199581146240234 0.5960819125175476 2.2246081829071045
-18.59296989440918 0.5876126289367676 2.193000078201294
-18.863147735595703 0.5586026310920715 2.084733486175537
-19.07891082763672 0.5275495052337646 1.9688416719436646
-19.204870223999023 0.49366626143455505 1.8423875570297241
-19.465892791748047 0.4498611390590668 1.67890465259552
-19.306196212768555 0.42933171987533575 1.602287769317627
-19.087430953979492 0.3990508019924164 1.4892778396606445
-18.774822235107422 0.3755994439125061 1.4017561674118042
-18.056854248046875 0.3551267385482788 1.3253511190414429
-17.403961181640625 0.34619826078414917 1.2920295000076294
-16.705944061279297 0.33422932028770447 1.2473608255386353
-15.982980728149412 0.3219923675060272 1.2016918659210205
-14.542770385742188 0.3012858033180237 1.1244139671325684
-12.796225547790527 0.29938605427742004 1.1173239946365356
-10.827804565429688 0.32322555780410767 1.2062941789627075
-9.149560928344727 0.3682422935962677 1.3742989301681519
-7.532605171203613 0.39590781927108765 1.4775481224060059
-6.182277202606201 0.4014139771461487 1.49809730052948
-4.882853031158447 0.39605581760406494 1.4781004190444946
-3.464381217956543 0.3942105174064636 1.471213698387146
-2.0194058418273926 0.4043648838996887 1.5091102123260498