# vtk DataFile Version 4.0
 
ASCII
DATASET UNSTRUCTURED_GRID
POINTS 51 float
0.0032922609243541956 0.0023788688704371452 0.007097539491951466
0.003229763358831405 0.0008643246837891638 0.010974373668432236
0.003138394095003605 -0.00013710188795812428 0.014910036697983743
0.0028620881494134665 -0.0009047903586179018 0.018829667940735817
0.0024306110572069883 -0.0014839390059933066 0.02272115834057331
0.0019982317462563515 -0.00208959449082613 0.026526883244514465
0.0017444419208914044 -0.003065857570618391 0.03015464544296265
0.001740187988616526 -0.004205065779387951 0.03366008400917053
0.0019156732596457005 -0.005177321378141642 0.037131596356630325
0.00216366327367723 -0.006241768132895231 0.040499746799468994
0.002406609710305929 -0.00730338878929615 0.04378999397158623
0.0025995990727096796 -0.008234982378780842 0.047036416828632355
0.002723678248003125 -0.009115954861044884 0.05021774768829346
0.0027798479422926903 -0.010031145997345448 0.053311243653297424
0.002782244235277176 -0.010973148047924042 0.056318897753953934
0.0027508526109158993 -0.011887297965586185 0.059255354106426246
0.0027057079132646322 -0.012722771614789963 0.06213422864675521
0.0026627120096236467 -0.013467445969581604 0.06495877355337143
0.002631532493978739 -0.014154648408293722 0.06772005558013916
0.002616326557472348 -0.014832942746579647 0.07040506601333618
0.002617395017296076 -0.01553428079932928 0.07300523668527603
0.002632583025842905 -0.01625928469002247 0.07552041113376617
0.0026584563311189413 -0.016988100484013557 0.07795589417219162
0.0026912044268101454 -0.017697539180517197 0.0803179144859314
0.0027272577863186598 -0.0183701254427433 0.08261115103960037
0.0027636769227683544 -0.0189954936504364 0.0848383754491806
0.0027983631007373333 -0.019569944590330124 0.08700057864189148
0.0028301344718784094 -0.02009568177163601 0.08909717947244644
0.002858696971088648 -0.02057984657585621 0.09112625569105148
0.002884538844227791 -0.02103329636156559 0.0930848941206932
0.002908645896241069 -0.021468104794621468 0.09496987611055374
0.0029320986941456795 -0.021894164383411407 0.09677854180335999
0.002955782227218151 -0.02231704443693161 0.09850939363241196
0.002980233170092106 -0.022737188264727592 0.1001623198390007
0.003005585866048932 -0.02315007708966732 0.10173852741718292
0.00303159118629992 -0.023547062650322914 0.10324033349752425
0.0030576810240745544 -0.02391659840941429 0.10467083752155304
0.003083063056692481 -0.024246487766504288 0.10603330284357072
0.0031068241223692894 -0.024529296904802322 0.10732972621917723
0.0031280354596674442 -0.024766847491264343 0.10855960845947266
0.00314584793522954 -0.02497062459588051 0.10971987992525101
0.0031595712061971426 -0.02515946887433529 0.1108054965734482
0.003168734721839428 -0.025356467813253403 0.11181026697158813
0.003173124277964235 -0.025589914992451668 0.1127266064286232
0.003172800177708268 -0.025894543156027794 0.1135452091693878
0.0031680921092629433 -0.026305751875042915 0.11425659805536272
0.0031595753971487284 -0.026850461959838867 0.11485355347394943
0.003148033283650875 -0.02753867395222187 0.11533339321613312
0.003134404309093952 -0.028358129784464833 0.1156994104385376
0.0031197243370115757 -0.029273122549057007 0.11596116423606873
0.003105060663074255 -0.030227446928620342 0.1161337196826935

CELLS 50 150
2 0 1
2 1 2
2 2 3
2 3 4
2 4 5
2 5 6
2 6 7
2 7 8
2 8 9
2 9 10
2 10 11
2 11 12
2 12 13
2 13 14
2 14 15
2 15 16
2 16 17
2 17 18
2 18 19
2 19 20
2 20 21
2 21 22
2 22 23
2 23 24
2 24 25
2 25 26
2 26 27
2 27 28
2 28 29
2 29 30
2 30 31
2 31 32
2 32 33
2 33 34
2 34 35
2 35 36
2 36 37
2 37 38
2 38 39
2 39 40
2 40 41
2 41 42
2 42 43
2 43 44
2 44 45
2 45 46
2 46 47
2 47 48
2 48 49
2 49 50

CELL_TYPES 50
4
4
4
4
4
4
4
4
4
4
4
4
4
4
4
4
4
4
4
4
4
4
4
4
4
4
4
4
4
4
4
4
4
4
4
4
4
4
4
4
4
4
4
4
4
4
4
4
4
4

POINT_DATA 51

SCALARS zone float
LOOKUP_TABLE default
1.0
1.0
1.0
1.0
1.0
1.0
1.0
1.0
1.0
1.0
1.0
1.0
1.0
1.0
1.0
1.0
1.0
1.0
1.0
1.0
1.0
1.0
1.0
1.0
1.0
1.0
1.0
1.0
1.0
1.0
1.0
1.0
1.0
1.0
1.0
1.0
1.0
1.0
1.0
1.0
1.0
1.0
1.0
1.0
1.0
1.0
1.0
1.0
1.0
1.0
1.0

VECTORS normals float
-3.124873182969168e-5 -0.0007572721224278212 0.0019384172046557069
-7.693334191571921e-5 -0.0012579853646457195 0.003906248603016138
-0.0001838376629166305 -0.0008845574920997024 0.003927647136151791
-0.0003538915771059692 -0.0006734185153618455 0.0039055608212947845
-0.0004319281433708965 -0.0005924020661041141 0.0038486081175506115
-0.0003430845681577921 -0.0007909593405202031 0.0037167437840253115
-0.00012902190792374313 -0.0010577357606962323 0.0035666001494973902
8.561566210119054e-5 -0.0010557319037616253 0.00348847615532577
0.0002117376570822671 -0.0010183510603383183 0.0034198311623185873
0.00024546831264160573 -0.0010630335891619325 0.0033291976433247328
0.0002179679140681401 -0.0009966070065274835 0.003268335480242967
0.00015853419608902186 -0.0009062832687050104 0.003213876625522971
9.012437658384442e-5 -0.0008980820421129464 0.003137413179501891
2.9283044568728656e-5 -0.0009285962441936135 0.003050575964152813
-1.4497647498501465e-5 -0.0009280758677050471 0.0029720542952418327
-3.826815736829303e-5 -0.0008748117252252997 0.0029076654464006424
-4.407023516250774e-5 -0.0007900742348283529 0.002851709723472595
-3.708776057465002e-5 -0.000715938804205507 0.002792913233861327
-2.319276609341614e-5 -0.0006827483302913606 0.002723145531490445
-7.068673312460305e-6 -0.0006898161373101175 0.0026425907853990793
8.128289664455224e-6 -0.0007131709717214108 0.0025576718617230654
2.053066054941155e-5 -0.0007269099587574601 0.002475329441949725
2.9310647732927464e-5 -0.000719127245247364 0.002398753771558404
3.440070213400759e-5 -0.0006910121301189065 0.0023276263382285833
3.623620068538003e-5 -0.0006489772349596024 0.0022602283861488104
3.555265357135795e-5 -0.0005999098066240549 0.002194714965298772
3.3228800020879135e-5 -0.0005500941770151258 0.0021294020116329193
3.0166916985763237e-5 -0.0005049508763477206 0.00206283712759614
2.720216980378609e-5 -0.00046880758600309486 0.0019938608165830374
2.4974500774987977e-5 -0.00044412905117496854 0.001921812305226922
2.3779994080541655e-5 -0.00043043322511948645 0.0018468210473656654
2.3568165488541126e-5 -0.0004244697047397495 0.0017697579460218549
2.406723433523439e-5 -0.00042151185334660113 0.0016918894834816454
2.4901799406507052e-5 -0.00041651620995253325 0.0016145671252161264
2.5678929887362756e-5 -0.00040493762935511773 0.0015390085754916072
2.604758265078999e-5 -0.00038326086360029876 0.0014661557506769896
2.573603342170827e-5 -0.0003497120924293995 0.0013964840909466147
2.45715600613039e-5 -0.0003063497715629637 0.0013294420205056667
2.2486185116576962e-5 -0.00026018021162599325 0.0012631521094590425
1.951184640347492e-5 -0.00022066323435865343 0.0011950796470046043
1.5767878721817397e-5 -0.000196310444152914 0.0011229439405724406
1.1443358744145371e-5 -0.0001929214777192101 0.0010451909620314837
6.776487680326682e-6 -0.00021522383030969647 0.0009605540544725953
2.0328297978267074e-6 -0.0002690377878025174 0.0008674736600369216
-2.5160579752991907e-6 -0.00035791765549220145 0.0007649973267689347
-6.612403467443073e-6 -0.0004779595183208584 0.0006541712209582329
-1.002946464723209e-5 -0.0006164612132124603 0.0005383988027460873
-1.2585563126776831e-5 -0.0007538339123129845 0.0004229288606438786
-1.4154468772176187e-5 -0.0008672247058711946 0.00031388489878736436
-1.4671891221951226e-5 -0.0009346581646241248 0.00021715511684305969
-7.331854249059689e-6 -0.0004771615203935653 8.627771603642032e-5

CELL_DATA 50

VECTORS liftinglineloading               float
0.08149860054254532 -0.0823548436164856 -0.02997471205890179
0.016807427629828453 -0.035216692835092545 -0.012817827984690666
0.058394502848386765 -0.06923436373472214 -0.025199247524142265
0.1590503305196762 -0.1365034431219101 -0.049683187156915665
-0.26332569122314453 -0.3007325828075409 -0.10945770889520647
-1.4570590257644653 -0.70311039686203 -0.255911260843277
-3.219998359680176 -1.2513631582260132 -0.45545893907546997
-5.014603137969971 -1.7738147974014284 -0.6456157565116882
-6.811746120452881 -2.24355149269104 -0.8165859580039978
-9.095845222473145 -2.7479686737060547 -1.0001788139343262
-11.398344993591309 -3.232388973236084 -1.1764934062957764
-12.797944068908691 -3.496192932128906 -1.2725101709365845
-13.877819061279299 -3.6166186332702637 -1.316341519355774
-14.579272270202637 -3.670369863510132 -1.3359053134918213
-15.042260169982908 -3.6361370086669926 -1.3234456777572632
-15.337660789489748 -3.5787627696990962 -1.302563190460205
-15.362527847290039 -3.387383222579956 -1.232906699180603
-15.312504768371582 -3.237311840057373 -1.1782851219177246
-15.32081127166748 -3.101175308227539 -1.1287355422973633
-14.797902107238771 -2.8817996978759766 -1.048889398574829
-14.5982723236084 -2.7624006271362305 -1.0054315328598022
-14.721110343933107 -2.6843745708465576 -0.977032482624054
-14.56029224395752 -2.5221328735351562 -0.9179813265800477
-14.779582977294922 -2.496079683303833 -0.9084987044334412
-15.167820930480957 -2.4039392471313477 -0.874962329864502
-15.532249450683596 -2.3436641693115234 -0.8530240058898927
-15.720418930053711 -2.2810802459716797 -0.8302453160285951
-16.270666122436523 -2.2555954456329346 -0.8209696412086487
-16.69873046875 -2.1845390796661377 -0.7951071858406067
-17.671463012695312 -2.1467058658599854 -0.7813370227813721
-18.035747528076172 -2.0536396503448486 -0.7474637031555176
-18.32887840270996 -1.9480013847351074 -0.7090145349502563
-18.5211181640625 -1.8295261859893797 -0.6658930778503418
-18.78497886657715 -1.6726489067077637 -0.6087943911552429
-18.676103591918945 -1.596835970878601 -0.5812007188796997
-18.49103355407715 -1.482765555381775 -0.5396825075149536
-18.196781158447266 -1.3925837278366089 -0.5068590044975281
-17.524255752563477 -1.3148579597473145 -0.4785691797733307
-16.9184513092041 -1.2772762775421143 -0.46489056944847107
-16.2492733001709 -1.2307517528533936 -0.4479569792747498
-15.622450828552246 -1.1837589740753174 -0.430853009223938
-14.198534965515137 -1.106500267982483 -0.40273317694664
-12.494646072387695 -1.0921272039413452 -0.39750179648399353
-10.541448593139648 -1.175635814666748 -0.4278964102268219
-8.878962516784668 -1.3317925930023193 -0.48473286628723145
-7.255799770355225 -1.4310280084609985 -0.5208516120910645
-5.912347316741943 -1.4483474493026733 -0.527155339717865
-4.615927696228027 -1.4262720346450806 -0.5191205739974976
-3.2194552421569824 -1.4169912338256836 -0.5157426595687866
-1.8180314302444458 -1.4523900747299194 -0.5286267399787903