# vtk DataFile Version 4.0
 
ASCII
DATASET UNSTRUCTURED_GRID
POINTS 51 float
0.0032922609243541956 0.007471393328160047 -0.0004608325252775103
0.003229763358831405 0.010824134573340416 0.0020055032800883055
0.003138394095003605 0.014366504736244677 0.0039914315566420555
0.0028620881494134665 0.017953885719180107 0.005747437011450529
0.0024306110572069883 0.021562881767749786 0.007314043119549751
0.0019982317462563515 0.0250821765512228 0.008884056471288204
0.0017444419208914044 0.028333649039268494 0.010765987448394299
0.001740187988616526 0.03142479434609413 0.01277365256100893
0.0019156732596457005 0.03452637791633606 0.01461127307265997
0.00216366327367723 0.03750426322221756 0.016511190682649612
0.002406609710305929 0.04040762782096863 0.018388215452432632
0.0025995990727096796 0.04330231994390488 0.02012830227613449
0.002723678248003125 0.04614723473787308 0.021802645176649094
0.0027798479422926903 0.04889845475554466 0.023487308993935585
0.002782244235277176 0.05155981704592705 0.02517564967274666
0.0027508526109158993 0.054159615188837044 0.02681866101920605
0.0027057079132646322 0.0567241609096527 0.02837077528238296
0.0026627120096236467 0.05925972387194633 0.029821122065186497
0.002631532493978739 0.06174905598163605 0.031199580058455467
0.002616326557472348 0.06416702270507812 0.032549694180488586
0.002617395017296076 0.0664970725774765 0.03390010818839073
0.002632583025842905 0.0687389001250267 0.03525138273835182
0.0026584563311189413 0.07090277224779129 0.03658571466803551
0.0026912044268101454 0.07300069183111191 0.03788231685757637
0.0027272577863186598 0.07504170387983322 0.03912551701068878
0.0027636769227683544 0.07703118026256561 0.04030602425336838
0.0027983631007373333 0.0789710283279419 0.04142052307724953
0.0028301344718784094 0.08086011558771133 0.042470984160900116
0.002858696971088648 0.08269474655389786 0.0434638150036335
0.002884538844227791 0.08446928858757019 0.04440874978899956
0.002908645896241069 0.08617750555276871 0.04531661048531532
0.0029320986941456795 0.08781426399946213 0.04619626700878143
0.002955782227218151 0.08937668800354004 0.047052714973688126
0.002980233170092106 0.09086455404758453 0.047886352986097336
0.003005585866048932 0.09228018671274185 0.04869312420487404
0.00303159118629992 0.09362807869911194 0.049465280026197433
0.0030576810240745544 0.09491419792175293 0.050192467868328094
0.003083063056692481 0.09614485502243042 0.05086374655365943
0.0031068241223692894 0.09732390195131302 0.051472458988428116
0.0031280354596674442 0.09845039993524551 0.05202023312449455
0.00314584793522954 0.09951839596033096 0.0525173656642437
0.0031595712061971426 0.10051814466714859 0.052980754524469376
0.003168734721839428 0.10143768787384032 0.053431093692779534
0.003173124277964235 0.10226237773895264 0.05389375239610673
0.003172800177708268 0.10297425091266632 0.05439987033605575
0.0031680921092629433 0.10355497151613235 0.054981186985969537
0.0031595753971487284 0.1039905995130539 0.05566184222698212
0.003148033283650875 0.10427597165107728 0.056450795382261276
0.003134404309093952 0.10441742837429045 0.05733706057071686
0.0031197243370115757 0.10443344712257385 0.05828862264752388
0.003105060663074255 0.1043531224131584 0.05925508961081505

CELLS 50 150
2 0 1
2 1 2
2 2 3
2 3 4
2 4 5
2 5 6
2 6 7
2 7 8
2 8 9
2 9 10
2 10 11
2 11 12
2 12 13
2 13 14
2 14 15
2 15 16
2 16 17
2 17 18
2 18 19
2 19 20
2 20 21
2 21 22
2 22 23
2 23 24
2 24 25
2 25 26
2 26 27
2 27 28
2 28 29
2 29 30
2 30 31
2 31 32
2 32 33
2 33 34
2 34 35
2 35 36
2 36 37
2 37 38
2 38 39
2 39 40
2 40 41
2 41 42
2 42 43
2 43 44
2 44 45
2 45 46
2 46 47
2 47 48
2 48 49
2 49 50

CELL_TYPES 50
4
4
4
4
4
4
4
4
4
4
4
4
4
4
4
4
4
4
4
4
4
4
4
4
4
4
4
4
4
4
4
4
4
4
4
4
4
4
4
4
4
4
4
4
4
4
4
4
4
4

POINT_DATA 51

SCALARS zone float
LOOKUP_TABLE default
1.0
1.0
1.0
1.0
1.0
1.0
1.0
1.0
1.0
1.0
1.0
1.0
1.0
1.0
1.0
1.0
1.0
1.0
1.0
1.0
1.0
1.0
1.0
1.0
1.0
1.0
1.0
1.0
1.0
1.0
1.0
1.0
1.0
1.0
1.0
1.0
1.0
1.0
1.0
1.0
1.0
1.0
1.0
1.0
1.0
1.0
1.0
1.0
1.0
1.0
1.0

VECTORS normals float
-3.124873182969168e-5 0.001676370739005506 0.0012331679463386536
-7.693334191571921e-5 0.003447555704042316 0.0022261322010308504
-0.0001838376629166305 0.003564875572919845 0.001870966865681112
-0.0003538915771059692 0.0035981885157525535 0.0016613058978691697
-0.0004319281433708965 0.0035641449503600597 0.001568309497088194
-0.0003430845681577921 0.0033853834029287104 0.0017259721644222734
-0.00012902190792374313 0.003171309130266309 0.0019447982776910067
8.561566210119054e-5 0.0030963656026870012 0.0019226428121328354
0.0002117376570822671 0.003039734670892358 0.0018687690608203411
0.00024546831264160573 0.002940624486654997 0.0018884714227169752
0.0002179679140681401 0.0028990288265049458 0.001808555913157761
0.00015853419608902186 0.002869803225621581 0.0017072148621082306
9.012437658384442e-5 0.0027980676386505365 0.00167950289323926
2.9283044568728656e-5 0.0027062916196882725 0.0016865022480487823
-1.4497647498501465e-5 0.002630580449476838 0.0016656767111271618
-3.826815736829303e-5 0.0025821712333709 0.001597562455572188
-4.407023516250774e-5 0.0025500538758933544 0.0015012299409136176
-3.708776057465002e-5 0.0025124484673142433 0.0014144029701128602
-2.319276609341614e-5 0.0024536484852433205 0.0013642861740663648
-7.068673312460305e-6 0.0023740092292428017 0.0013502640649676323
8.128289664455224e-6 0.0022859391756355762 0.0013508443953469396
2.053066054941155e-5 0.0022028465755283833 0.0013428034726530313
2.9310647732927464e-5 0.0021308944560587406 0.0013154667103663087
3.440070213400759e-5 0.0020694672130048275 0.0012699004728347063
3.623620068538003e-5 0.0020152453798800707 0.0012118540471419692
3.555265357135795e-5 0.001964663853868842 0.0011475024512037635
3.3228800020879135e-5 0.0019144696416333318 0.0010824799537658691
3.0166916985763237e-5 0.001861856784671545 0.001021646661683917
2.720216980378609e-5 0.001804585219360888 0.0009688824648037552
2.4974500774987977e-5 0.0017413790337741373 0.0009263973333872856
2.3779994080541655e-5 0.0016724878223612902 0.0008937590173445642
2.3568165488541126e-5 0.0015995941357687116 0.0008680532919242978
2.406723433523439e-5 0.0015251444419845939 0.0008450424065813423
2.4901799406507052e-5 0.0014517497038468719 0.0008202044409699739
2.5678929887362756e-5 0.001381762558594346 0.0007894644513726234
2.604758265078999e-5 0.0013170025777071714 0.0007496706093661487
2.573603342170827e-5 0.001258387928828597 0.0006992326234467328
2.45715600613039e-5 0.0012048531789332628 0.0006399960839189589
2.2486185116576962e-5 0.0011527716415002942 0.0005782425869256258
1.951184640347492e-5 0.001097246422432363 0.0005224536871537566
1.5767878721817397e-5 0.0010338716674596071 0.0004802606126759201
1.1443358744145371e-5 0.0009596452000550926 0.0004568631702568382
6.776487680326682e-6 0.0008721199701540172 0.0004564999544527382
2.0328297978267074e-6 0.000768283091019839 0.00048438925296068186
-2.5160579752991907e-6 0.0006462947931140661 0.000543717760592699
-6.612403467443073e-6 0.0005081758718006313 0.0006309854215942323
-1.002946464723209e-5 0.00036050137714482844 0.0007348036742769182
-1.2585563126776831e-5 0.00021341134561225775 0.0008376096957363188
-1.4154468772176187e-5 7.873524737078696e-5 0.0009189140982925892
-1.4671891221951226e-5 -3.2151598134078085e-5 0.0009590143454261123
-7.331854249059689e-6 -4.0160615753848106e-5 0.0004832329577766359

CELL_DATA 50

VECTORS liftinglineloading               float
0.08805195242166519 -0.05132457613945007 0.07329908758401871
0.038573257625103 -0.034241724759340286 0.048902250826358795
0.020322764292359352 -0.029788218438625336 0.0425419844686985
0.21717108786106112 -0.0691700279712677 0.09878503531217575
-0.1631447672843933 -0.16107355058193207 0.2300368547439575
-1.1499210596084595 -0.37110844254493713 0.5299977660179138
-2.8714759349823 -0.7068864107131958 1.0095384120941162
-4.6154866218566895 -1.030132532119751 1.4711816310882568
-6.3778510093688965 -1.327748417854309 1.8962212800979612
-8.591781616210938 -1.6339509487152097 2.333523750305176
-10.838210105895996 -1.9253169298172 2.7496376037597656
-12.522000312805176 -2.1031908988952637 3.0036678314208984
-13.626659393310545 -2.1788156032562256 3.111670970916748
-14.361779212951662 -2.2137107849121094 3.1615066528320312
-14.859938621520994 -2.1952219009399414 3.135101795196533
-15.18940258026123 -2.1628317832946777 3.088844060897827
-15.251296043395996 -2.0499024391174316 2.9275639057159424
-15.239697456359863 -1.9616976976394653 2.8015947341918945
-15.285281181335451 -1.8808588981628418 2.6861448287963867
-14.81367492675781 -1.7506802082061768 2.500230312347412
-14.667229652404785 -1.6806710958480833 2.400247097015381
-14.77440357208252 -1.630262851715088 2.328256607055664
-14.726264953613281 -1.5387786626815796 2.197603702545166
-15.022467613220215 -1.5241389274597168 2.1766958236694336
-15.404178619384766 -1.4664641618728638 2.094327688217163
-15.778935432434082 -1.4289908409118652 2.0408105850219727
-16.022445678710938 -1.3923699855804443 1.9885103702545168
-16.57884407043457 -1.374316930770874 1.9627280235290527
-17.01390266418457 -1.3308212757110596 1.9006097316741941
-17.948837280273438 -1.3051780462265015 1.8639873266220093
-18.248008728027344 -1.2464866638183594 1.7801674604415894
-18.473419189453125 -1.1817421913146973 1.6877027750015257
-18.597623825073242 -1.1101809740066528 1.5855026245117188
-18.80061912536621 -1.0160095691680908 1.451012134552002
-18.626142501831055 -0.971585214138031 1.3875675201416016
-18.381755828857422 -0.9036790728569031 1.2905875444412231
-18.03377342224121 -0.8497778773307801 1.2136085033416748
-17.325780868530273 -0.803192138671875 1.1470773220062256
-16.68292999267578 -0.7804409265518188 1.1145851612091064
-15.979431152343752 -0.7522103190422058 1.0742676258087158
-15.301250457763672 -0.7241665720939636 1.034217119216919
-13.87842082977295 -0.676815390586853 0.9665925502777101
-12.20107650756836 -0.6649582386016846 0.9496587514877318
-10.268523216247559 -0.7141567468643188 1.0199215412139893
-8.62716007232666 -0.8049494028091431 1.1495869159698486
-7.011501789093018 -0.8642761707305908 1.234314203262329
-5.688554763793945 -0.8732505440711976 1.2471309900283813
-4.413300037384033 -0.8583989739418029 1.2259207963943481
-3.055706262588501 -0.8513903021812439 1.2159113883972168
-1.7088665962219238 -0.8723016381263733 1.245775818824768