# vtk DataFile Version 4.0
 
ASCII
DATASET UNSTRUCTURED_GRID
POINTS 51 float
0.0032922609243541956 0.006019636522978544 0.004449500702321529
0.003229763358831405 0.007002655416727066 0.008493924513459206
0.003138394095003605 0.008439738303422928 0.012292224913835526
0.0028620881494134665 0.010059093125164509 0.01594332791864872
0.0024306110572069883 0.011816749349236488 0.01946323551237583
0.0019982317462563515 0.013503500260412691 0.022928092628717422
0.0017444419208914044 0.014784590341150759 0.026459742337465283
0.001740187988616526 0.01586204394698143 0.029984652996063232
0.0019156732596457005 0.017056796699762344 0.03338601440191269
0.00216366327367723 0.018116744235157967 0.036755580455064774
0.002406609710305929 0.019134322181344032 0.04005971550941467
0.0025995990727096796 0.0202332790941 0.04325336962938309
0.002723678248003125 0.02133636176586151 0.046364665031433105
0.0027798479422926903 0.022361040115356445 0.049423642456531525
0.002782244235277176 0.023314516991376877 0.05242767930030823
0.0027508526109158993 0.02424997091293335 0.05535741895437241
0.0027057079132646322 0.0252168457955122 0.058194860816001885
0.0026627120096236467 0.026226935908198357 0.060935720801353455
0.002631532493978739 0.02724781818687916 0.06359179317951202
0.002616326557472348 0.02823225036263466 0.0661802813410759
0.002617395017296076 0.029149144887924194 0.06871248781681061
0.002632583025842905 0.029997900128364566 0.07118863612413406
0.0026584563311189413 0.03079782798886299 0.07360170781612396
0.0026912044268101454 0.031571488827466965 0.0759434774518013
0.0027272577863186598 0.032335881143808365 0.07820776104927063
0.0027636769227683544 0.03310109302401543 0.08039089292287827
0.0027983631007373333 0.033870723098516464 0.08249156177043915
0.0028301344718784094 0.034642621874809265 0.08451054245233536
0.002858696971088648 0.035409849137067795 0.08645036816596985
0.002884538844227791 0.03616183623671532 0.08831489086151123
0.002908645896241069 0.03688684105873108 0.09010836482048035
0.0029320986941456795 0.037575241178274155 0.09183431416749954
0.002955782227218151 0.03822161257266998 0.09349469840526581
0.002980233170092106 0.03882553055882454 0.09508968144655228
0.003005585866048932 0.03939139097929001 0.09661766141653061
0.00303159118629992 0.03992759808897972 0.09807557612657547
0.0030576810240745544 0.040445394814014435 0.09945932775735855
0.003083063056692481 0.04095664620399475 0.10076460987329483
0.0031068241223692894 0.04146857559680939 0.1019887924194336
0.0031280354596674442 0.04197942093014717 0.10313250869512557
0.00314584793522954 0.04247800260782242 0.10419982671737671
0.0031595712061971426 0.042945992201566696 0.10519742965698242
0.003168734721839428 0.04336092993617058 0.10613347589969635
0.003173124277964235 0.04369529336690903 0.10701800137758255
0.003172800177708268 0.043915290385484695 0.10786329209804534
0.0031680921092629433 0.0439864844083786 0.10868188738822937
0.0031595753971487284 0.04388268291950226 0.10948331654071806
0.003148033283650875 0.04359415918588638 0.11027111858129501
0.003134404309093952 0.04313283786177635 0.11104096472263336
0.0031197243370115757 0.042533453553915024 0.11178019642829894
0.003105060663074255 0.04185069352388382 0.11246892809867859

CELLS 50 150
2 0 1
2 1 2
2 2 3
2 3 4
2 4 5
2 5 6
2 6 7
2 7 8
2 8 9
2 9 10
2 10 11
2 11 12
2 12 13
2 13 14
2 14 15
2 15 16
2 16 17
2 17 18
2 18 19
2 19 20
2 20 21
2 21 22
2 22 23
2 23 24
2 24 25
2 25 26
2 26 27
2 27 28
2 28 29
2 29 30
2 30 31
2 31 32
2 32 33
2 33 34
2 34 35
2 35 36
2 36 37
2 37 38
2 38 39
2 39 40
2 40 41
2 41 42
2 42 43
2 43 44
2 44 45
2 45 46
2 46 47
2 47 48
2 48 49
2 49 50

CELL_TYPES 50
4
4
4
4
4
4
4
4
4
4
4
4
4
4
4
4
4
4
4
4
4
4
4
4
4
4
4
4
4
4
4
4
4
4
4
4
4
4
4
4
4
4
4
4
4
4
4
4
4
4

POINT_DATA 51

SCALARS zone float
LOOKUP_TABLE default
1.0
1.0
1.0
1.0
1.0
1.0
1.0
1.0
1.0
1.0
1.0
1.0
1.0
1.0
1.0
1.0
1.0
1.0
1.0
1.0
1.0
1.0
1.0
1.0
1.0
1.0
1.0
1.0
1.0
1.0
1.0
1.0
1.0
1.0
1.0
1.0
1.0
1.0
1.0
1.0
1.0
1.0
1.0
1.0
1.0
1.0
1.0
1.0
1.0
1.0
1.0

VECTORS normals float
-3.124873182969168e-5 0.0004915093886666 0.002022211905568838
-7.693334191571921e-5 0.00121005077380687 0.003921362105756998
-0.0001838376629166305 0.0015282188542187214 0.003724701702594757
-0.0003538915771059692 0.0016885054064914584 0.0035855050664395094
-0.0004319281433708965 0.0017222035676240923 0.003492383053526282
-0.0003430845681577921 0.001483920612372458 0.0034982538782060146
-0.00012902190792374313 0.001179271494038403 0.0035282801836729054
8.561566210119054e-5 0.0011361027136445045 0.0034631353337317705
0.0002117376570822671 0.00112735026050359 0.0033854639623314142
0.00024546831264160573 0.0010387630900368094 0.0033368500880897045
0.0002179679140681401 0.0010582675458863378 0.0032488941214978695
0.00015853419608902186 0.001101020141504705 0.003152476390823722
9.012437658384442e-5 0.0010638805106282234 0.0030851371120661497
2.9283044568728656e-5 0.0009890769142657518 0.00303150643594563
-1.4497647498501465e-5 0.0009444651077501477 0.0029668868519365788
-3.826815736829303e-5 0.000951164576690644 0.0028835914563387632
-4.407023516250774e-5 0.0009884826140478253 0.002789151854813099
-3.708776057465002e-5 0.0010154865449294448 0.002698466181755066
-2.319276609341614e-5 0.0010026574600487947 0.0026222786400467157
-7.068673312460305e-6 0.0009506635251455008 0.00256034592166543
8.128289664455224e-6 0.0008828248246572913 0.002504180185496807
2.053066054941155e-5 0.0008243409101851285 0.00244460953399539
2.9310647732927464e-5 0.0007867941167205572 0.0023774185683578253
3.440070213400759e-5 0.0007690275670029223 0.0023030280135571957
3.623620068538003e-5 0.000764802738558501 0.002223708899691701
3.555265357135795e-5 0.0007674194639548659 0.0021418994292616844
3.3228800020879135e-5 0.0007707640761509538 0.00205982499755919
3.0166916985763237e-5 0.0007695632521063089 0.0019794052932411432
2.720216980378609e-5 0.0007596068317070603 0.0019021721091121435
2.4974500774987977e-5 0.0007384970085695386 0.0018289984436705709
2.3779994080541655e-5 0.0007067027618177235 0.001759713632054627
2.3568165488541126e-5 0.0006673862226307392 0.0016931666759774089
2.406723433523439e-5 0.0006251456798054278 0.0016276839887723327
2.4901799406507052e-5 0.0005848875152878463 0.0015614797594025731
2.5678929887362756e-5 0.0005510335322469473 0.0014929446624591947
2.604758265078999e-5 0.0005270034889690578 0.001420833868905902
2.573603342170827e-5 0.0005145230097696185 0.0013445194344967604
2.45715600613039e-5 0.0005115895764902234 0.0012647301191464067
2.2486185116576962e-5 0.0005113871302455664 0.0011839468497782946
1.951184640347492e-5 0.0005047128070145845 0.0011055191280320287
1.5767878721817397e-5 0.00048328607226721937 0.0010324608301743865
1.1443358744145371e-5 0.0004414648865349591 0.0009668255224823952
6.776487680326682e-6 0.0003746501461137086 0.0009102871408686042
2.0328297978267074e-6 0.00027717958437278867 0.0008649065275676548
-2.5160579752991907e-6 0.0001455954770790413 0.0008319422486238182
-6.612403467443073e-6 -1.6304320524795912e-5 0.000810011988505721
-1.002946464723209e-5 -0.000196162611246109 0.0007946180994622409
-1.2585563126776831e-5 -0.00037492255796678364 0.0007788244402036071
-1.4154468772176187e-5 -0.000530351884663105 0.0007545390981249511
-1.4671891221951226e-5 -0.0006410721107386053 0.0007139809895306826
-7.331854249059689e-6 -0.0003413809754420072 0.0003443631867412478

CELL_DATA 50

VECTORS liftinglineloading               float
0.1897260695695877 -0.14591681957244873 0.03909829631447792
0.30807462334632874 -0.27040308713912964 0.0724542886018753
-0.19869881868362427 -0.13619187474250793 0.03649250417947769
0.031528059393167496 -0.09003442525863647 0.02412465028464794
0.38621842861175537 -0.08897562325000763 0.023840947076678276
-0.42743000388145447 -0.3946691155433655 0.10575126856565475
-2.132279634475708 -0.9960003495216371 0.2668774724006653
-4.037831783294678 -1.6239062547683716 0.4351243674755096
-6.003597259521484 -2.2079365253448486 0.591614842414856
-8.29674243927002 -2.7518503665924072 0.7373561263084412
-10.929505348205566 -3.2971088886260986 0.8834576606750488
-12.773438453674316 -3.610625982284546 0.9674643278121948
-13.959992408752441 -3.737138032913208 1.0013630390167236
-14.71302318572998 -3.7913811206817627 1.015897512435913
-15.179274559020996 -3.7543587684631343 1.0059773921966553
-15.443117141723633 -3.692741155624389 0.9894670248031616
-15.625283241271973 -3.5086400508880615 0.9401372671127319
-15.636526107788086 -3.3568904399871826 0.8994761109352112
-15.71200466156006 -3.2152647972106934 0.8615276217460632
-15.301647186279299 -2.9979500770568848 0.8032983541488647
-15.22749137878418 -2.881396532058716 0.7720678448677063
-15.306923866271973 -2.7815792560577393 0.7453219294548035
-15.416469573974608 -2.6442058086395264 0.7085128426551819
-15.732342720031738 -2.6124377250671387 0.7000005841255188
-16.088258743286133 -2.505279779434204 0.6712877154350281
-16.47711944580078 -2.4369144439697266 0.652969241142273
-16.776622772216797 -2.3749611377716064 0.6363689303398132
-17.290952682495117 -2.3333940505981445 0.6252310872077942
-17.678831100463867 -2.2562930583953857 0.6045718789100647
-18.515926361083984 -2.205024242401123 0.5908344388008118
-18.678874969482422 -2.100059986114502 0.562709391117096
-18.759754180908203 -1.9901751279830933 0.5332658290863037
-18.75190544128418 -1.8714258670806887 0.5014470219612122
-18.839845657348633 -1.7160395383834837 0.45981138944625854
-18.58196449279785 -1.6440021991729736 0.44050905108451843
-18.254188537597656 -1.5318677425384521 0.41046273708343506
-17.878311157226562 -1.4409642219543457 0.38610517978668213
-17.122425079345703 -1.3634024858474731 0.3653225898742676
-16.43600845336914 -1.3245481252670288 0.3549116253852844
-15.69931888580322 -1.2765259742736816 0.34204408526420593
-15.02469539642334 -1.2291326522827148 0.32934510707855225
-13.60163402557373 -1.1486464738845825 0.30777889490127563
-11.95863151550293 -1.1229215860366821 0.300885945558548
-10.054450035095215 -1.203080177307129 0.32236436009407043
-8.443706512451172 -1.3492028713226318 0.3615178167819977
-6.845561504364014 -1.4482591152191162 0.3880598545074463
-5.592410087585449 -1.4655781984329224 0.3927004933357239
-4.333564758300781 -1.4397807121276855 0.38578808307647705
-2.9986460208892822 -1.4276117086410522 0.3825273811817169
-1.6756970882415771 -1.463392734527588 0.39211490750312805