# vtk DataFile Version 4.0
 
ASCII
DATASET UNSTRUCTURED_GRID
POINTS 51 float
0.0032922609243541956 -0.004449500702321529 0.006019636522978544
0.003229763358831405 -0.008493924513459206 0.007002655416727066
0.003138394095003605 -0.012292224913835526 0.008439738303422928
0.0028620881494134665 -0.01594332791864872 0.010059093125164509
0.0024306110572069883 -0.01946323551237583 0.011816749349236488
0.0019982317462563515 -0.022928092628717422 0.013503500260412691
0.0017444419208914044 -0.026459742337465283 0.014784590341150759
0.001740187988616526 -0.029984652996063232 0.01586204394698143
0.0019156732596457005 -0.03338601440191269 0.017056796699762344
0.00216366327367723 -0.036755580455064774 0.018116744235157967
0.002406609710305929 -0.04005971550941467 0.019134322181344032
0.0025995990727096796 -0.04325336962938309 0.0202332790941
0.002723678248003125 -0.046364665031433105 0.02133636176586151
0.0027798479422926903 -0.049423642456531525 0.022361040115356445
0.002782244235277176 -0.05242767930030823 0.023314516991376877
0.0027508526109158993 -0.05535741895437241 0.02424997091293335
0.0027057079132646322 -0.058194860816001885 0.0252168457955122
0.0026627120096236467 -0.060935720801353455 0.026226935908198357
0.002631532493978739 -0.06359179317951202 0.02724781818687916
0.002616326557472348 -0.0661802813410759 0.02823225036263466
0.002617395017296076 -0.06871248781681061 0.029149144887924194
0.002632583025842905 -0.07118863612413406 0.029997900128364566
0.0026584563311189413 -0.07360170781612396 0.03079782798886299
0.0026912044268101454 -0.0759434774518013 0.031571488827466965
0.0027272577863186598 -0.07820776104927063 0.032335881143808365
0.0027636769227683544 -0.08039089292287827 0.03310109302401543
0.0027983631007373333 -0.08249156177043915 0.033870723098516464
0.0028301344718784094 -0.08451054245233536 0.034642621874809265
0.002858696971088648 -0.08645036816596985 0.035409849137067795
0.002884538844227791 -0.08831489086151123 0.03616183623671532
0.002908645896241069 -0.09010836482048035 0.03688684105873108
0.0029320986941456795 -0.09183431416749954 0.037575241178274155
0.002955782227218151 -0.09349469840526581 0.03822161257266998
0.002980233170092106 -0.09508968144655228 0.03882553055882454
0.003005585866048932 -0.09661766141653061 0.03939139097929001
0.00303159118629992 -0.09807557612657547 0.03992759808897972
0.0030576810240745544 -0.09945932775735855 0.040445394814014435
0.003083063056692481 -0.10076460987329483 0.04095664620399475
0.0031068241223692894 -0.1019887924194336 0.04146857559680939
0.0031280354596674442 -0.10313250869512557 0.04197942093014717
0.00314584793522954 -0.10419982671737671 0.04247800260782242
0.0031595712061971426 -0.10519742965698242 0.042945992201566696
0.003168734721839428 -0.10613347589969635 0.04336092993617058
0.003173124277964235 -0.10701800137758255 0.04369529336690903
0.003172800177708268 -0.10786329209804534 0.043915290385484695
0.0031680921092629433 -0.10868188738822937 0.0439864844083786
0.0031595753971487284 -0.10948331654071806 0.04388268291950226
0.003148033283650875 -0.11027111858129501 0.04359415918588638
0.003134404309093952 -0.11104096472263336 0.04313283786177635
0.0031197243370115757 -0.11178019642829894 0.042533453553915024
0.003105060663074255 -0.11246892809867859 0.04185069352388382

CELLS 50 150
2 0 1
2 1 2
2 2 3
2 3 4
2 4 5
2 5 6
2 6 7
2 7 8
2 8 9
2 9 10
2 10 11
2 11 12
2 12 13
2 13 14
2 14 15
2 15 16
2 16 17
2 17 18
2 18 19
2 19 20
2 20 21
2 21 22
2 22 23
2 23 24
2 24 25
2 25 26
2 26 27
2 27 28
2 28 29
2 29 30
2 30 31
2 31 32
2 32 33
2 33 34
2 34 35
2 35 36
2 36 37
2 37 38
2 38 39
2 39 40
2 40 41
2 41 42
2 42 43
2 43 44
2 44 45
2 45 46
2 46 47
2 47 48
2 48 49
2 49 50

CELL_TYPES 50
4
4
4
4
4
4
4
4
4
4
4
4
4
4
4
4
4
4
4
4
4
4
4
4
4
4
4
4
4
4
4
4
4
4
4
4
4
4
4
4
4
4
4
4
4
4
4
4
4
4

POINT_DATA 51

SCALARS zone float
LOOKUP_TABLE default
1.0
1.0
1.0
1.0
1.0
1.0
1.0
1.0
1.0
1.0
1.0
1.0
1.0
1.0
1.0
1.0
1.0
1.0
1.0
1.0
1.0
1.0
1.0
1.0
1.0
1.0
1.0
1.0
1.0
1.0
1.0
1.0
1.0
1.0
1.0
1.0
1.0
1.0
1.0
1.0
1.0
1.0
1.0
1.0
1.0
1.0
1.0
1.0
1.0
1.0
1.0

VECTORS normals float
-3.124873182969168e-5 -0.002022211905568838 0.0004915093886666
-7.693334191571921e-5 -0.003921362105756998 0.00121005077380687
-0.0001838376629166305 -0.003724701702594757 0.0015282188542187214
-0.0003538915771059692 -0.0035855050664395094 0.0016885054064914584
-0.0004319281433708965 -0.003492383053526282 0.0017222035676240923
-0.0003430845681577921 -0.0034982538782060146 0.001483920612372458
-0.00012902190792374313 -0.0035282801836729054 0.001179271494038403
8.561566210119054e-5 -0.0034631353337317705 0.0011361027136445045
0.0002117376570822671 -0.0033854639623314142 0.00112735026050359
0.00024546831264160573 -0.0033368500880897045 0.0010387630900368094
0.0002179679140681401 -0.0032488941214978695 0.0010582675458863378
0.00015853419608902186 -0.003152476390823722 0.001101020141504705
9.012437658384442e-5 -0.0030851371120661497 0.0010638805106282234
2.9283044568728656e-5 -0.00303150643594563 0.0009890769142657518
-1.4497647498501465e-5 -0.0029668868519365788 0.0009444651077501477
-3.826815736829303e-5 -0.0028835914563387632 0.000951164576690644
-4.407023516250774e-5 -0.002789151854813099 0.0009884826140478253
-3.708776057465002e-5 -0.002698466181755066 0.0010154865449294448
-2.319276609341614e-5 -0.0026222786400467157 0.0010026574600487947
-7.068673312460305e-6 -0.00256034592166543 0.0009506635251455008
8.128289664455224e-6 -0.002504180185496807 0.0008828248246572913
2.053066054941155e-5 -0.00244460953399539 0.0008243409101851285
2.9310647732927464e-5 -0.0023774185683578253 0.0007867941167205572
3.440070213400759e-5 -0.0023030280135571957 0.0007690275670029223
3.623620068538003e-5 -0.002223708899691701 0.000764802738558501
3.555265357135795e-5 -0.0021418994292616844 0.0007674194639548659
3.3228800020879135e-5 -0.00205982499755919 0.0007707640761509538
3.0166916985763237e-5 -0.0019794052932411432 0.0007695632521063089
2.720216980378609e-5 -0.0019021721091121435 0.0007596068317070603
2.4974500774987977e-5 -0.0018289984436705709 0.0007384970085695386
2.3779994080541655e-5 -0.001759713632054627 0.0007067027618177235
2.3568165488541126e-5 -0.0016931666759774089 0.0006673862226307392
2.406723433523439e-5 -0.0016276839887723327 0.0006251456798054278
2.4901799406507052e-5 -0.0015614797594025731 0.0005848875152878463
2.5678929887362756e-5 -0.0014929446624591947 0.0005510335322469473
2.604758265078999e-5 -0.001420833868905902 0.0005270034889690578
2.573603342170827e-5 -0.0013445194344967604 0.0005145230097696185
2.45715600613039e-5 -0.0012647301191464067 0.0005115895764902234
2.2486185116576962e-5 -0.0011839468497782946 0.0005113871302455664
1.951184640347492e-5 -0.0011055191280320287 0.0005047128070145845
1.5767878721817397e-5 -0.0010324608301743865 0.00048328607226721937
1.1443358744145371e-5 -0.0009668255224823952 0.0004414648865349591
6.776487680326682e-6 -0.0009102871408686042 0.0003746501461137086
2.0328297978267074e-6 -0.0008649065275676548 0.00027717958437278867
-2.5160579752991907e-6 -0.0008319422486238182 0.0001455954770790413
-6.612403467443073e-6 -0.000810011988505721 -1.6304320524795912e-5
-1.002946464723209e-5 -0.0007946180994622409 -0.000196162611246109
-1.2585563126776831e-5 -0.0007788244402036071 -0.00037492255796678364
-1.4154468772176187e-5 -0.0007545390981249511 -0.000530351884663105
-1.4671891221951226e-5 -0.0007139809895306826 -0.0006410721107386053
-7.331854249059689e-6 -0.0003443631867412478 -0.0003413809754420072

CELL_DATA 50

VECTORS liftinglineloading               float
0.1170347034931183 -0.02739515714347363 -0.10224011540412903
0.1434466689825058 -0.039447639137506485 -0.14722059667110443
-0.08150344341993332 -0.008323094807565212 -0.031062211841344837
0.24176304042339325 -0.022820470854640007 -0.08516715466976166
-0.041013769805431366 -0.06063796952366829 -0.22630399465560913
-1.0047749280929565 -0.15384480357170105 -0.574156641960144
-2.8105108737945557 -0.3124205470085144 -1.1659693717956543
-4.664668083190918 -0.46324610710144043 -1.7288579940795898
-6.534127712249756 -0.5965273976325989 -2.2262704372406006
-8.893086433410645 -0.7349736094474792 -2.7429587841033936
-11.307703018188477 -0.8685015439987184 -3.2412919998168945
-13.097211837768555 -0.9425750970840455 -3.5177383422851562
-14.256660461425783 -0.9751789569854736 -3.63941740989685
-15.013239860534668 -0.990125298500061 -3.695197820663452
-15.526870727539062 -0.9847682118415834 -3.675204992294311
-15.952068328857422 -0.9756003618240356 -3.640990257263183
-16.035781860351562 -0.931966483592987 -3.4781463146209717
-16.055187225341797 -0.8939262628555298 -3.336178064346314
-16.163034439086914 -0.8530747294425964 -3.183718204498291
-15.761601448059084 -0.7979581356048584 -2.978020191192627
-15.627861976623535 -0.7665963768959045 -2.8609766960144043
-15.492347717285156 -0.7344107031822205 -2.7408580780029297
-15.592139244079592 -0.7018088698387146 -2.6191861629486084
-15.784943580627441 -0.6912649869918823 -2.579836130142212
-16.04275131225586 -0.6618731617927551 -2.470144271850586
-16.388254165649414 -0.643747091293335 -2.402496814727783
-16.93811798095703 -0.6339539885520935 -2.365948438644409
-17.234905242919922 -0.6173204779624939 -2.3038713932037354
-17.7117919921875 -0.5975241661071777 -2.2299907207489014
-18.645978927612305 -0.5834662318229675 -2.177525758743286
-18.896007537841797 -0.5546355843544006 -2.0699281692504883
-19.091062545776367 -0.5240419507026672 -1.9557512998580933
-19.16367530822754 -0.49105200171470637 -1.83263099193573
-19.39514923095703 -0.4481278657913208 -1.672435998916626
-19.205860137939453 -0.4283816218376159 -1.5987420082092285
-18.95980453491211 -0.3987456262111664 -1.488139033317566
-18.622303009033203 -0.3756901025772095 -1.4020944833755493
-17.88709259033203 -0.35546424984931946 -1.3266106843948364
-17.25067138671875 -0.3463502526283264 -1.292596697807312
-16.56784439086914 -0.3343002200126648 -1.2476253509521484
-15.864958763122557 -0.3220331370830536 -1.2018440961837769
-14.438996315002441 -0.30126848816871643 -1.1243493556976318
-12.706759452819824 -0.299013614654541 -1.1159340143203735
-10.749383926391602 -0.3226979672908783 -1.2043251991271973
-9.080942153930664 -0.36733701825141907 -1.3709204196929932
-7.469411849975586 -0.3949778378009796 -1.4740773439407349
-6.125407695770264 -0.40043365955352783 -1.4944387674331665
-4.830382347106934 -0.3950454890727997 -1.4743298292160034
-3.4178802967071533 -0.3931610882282257 -1.4672971963882446
-1.9744485616683962 -0.4032266139984131 -1.5048621892929077