# vtk DataFile Version 4.0
 
ASCII
DATASET UNSTRUCTURED_GRID
POINTS 51 float
0.0032922609243541956 -0.006966138258576393 -0.0027398911770433187
0.003229763358831405 -0.008962434716522694 -0.006392080336809158
0.003138394095003605 -0.011333622969686985 -0.009689012542366982
0.0028620881494134665 -0.013842774555087088 -0.012796587310731411
0.0024306110572069883 -0.016451559960842133 -0.01574164256453514
0.0019982317462563515 -0.018977606669068336 -0.018651874735951424
0.0017444419208914044 -0.021129103377461433 -0.02173161506652832
0.001740187988616526 -0.023082155734300613 -0.024857552722096443
0.0019156732596457005 -0.025116536766290665 -0.027833789587020877
0.00216366327367723 -0.02701247483491898 -0.030814208090305325
0.002406609710305929 -0.028850553557276726 -0.03374238684773445
0.0025995990727096796 -0.030738642439246178 -0.03654278814792633
0.002723678248003125 -0.032609403133392334 -0.039262570440769196
0.0027798479422926903 -0.0343908853828907 -0.04195211082696915
0.002782244235277176 -0.036089375615119934 -0.0446070097386837
0.0027508526109158993 -0.037751227617263794 -0.04719480499625206
0.0027057079132646322 -0.03941953927278519 -0.04968532174825668
0.0026627120096236467 -0.041104599833488464 -0.052071355283260345
0.002631532493978739 -0.0427781380712986 -0.05437270179390907
0.002616326557472348 -0.04439897462725639 -0.05661819502711296
0.002617395017296076 -0.045940011739730835 -0.05882681161165238
0.002632583025842905 -0.04740072041749954 -0.06099891662597656
0.0026584563311189413 -0.04879793897271156 -0.06312272697687149
0.0026912044268101454 -0.05015133321285248 -0.06518445909023285
0.0027272577863186598 -0.05147572234272957 -0.06717375665903091
0.0027636769227683544 -0.05277989432215691 -0.06908445060253143
0.0027983631007373333 -0.05406699329614639 -0.07091434299945831
0.0028301344718784094 -0.05533514171838761 -0.07266474515199661
0.002858696971088648 -0.05657828971743584 -0.07433990389108658
0.002884538844227791 -0.05778722465038299 -0.07594625651836395
0.002908645896241069 -0.058951713144779205 -0.07749098539352417
0.0029320986941456795 -0.06006336584687233 -0.07897994667291641
0.002955782227218151 -0.06111745536327362 -0.08041646331548691
0.002980233170092106 -0.06211360543966293 -0.08180079609155655
0.003005585866048932 -0.06305564939975739 -0.08313025534152985
0.00303159118629992 -0.06395092606544495 -0.08439970761537552
0.0030576810240745544 -0.06480921804904938 -0.0856022983789444
0.003083063056692481 -0.0656408816576004 -0.08673077821731567
0.0031068241223692894 -0.06645221263170242 -0.08778075128793716
0.0031280354596674442 -0.06724166125059128 -0.08875327557325363
0.00314584793522954 -0.06799949705600739 -0.08965519070625305
0.0031595712061971426 -0.06870973855257034 -0.09049767255783081
0.003168734721839428 -0.06935280561447144 -0.09129443019628525
0.003173124277964235 -0.06990470737218857 -0.09206227958202362
0.003172800177708268 -0.0703359842300415 -0.09282182902097702
0.0031680921092629433 -0.07061662524938583 -0.09359410405158997
0.0031595753971487284 -0.07072377949953079 -0.09439508616924286
0.003148033283650875 -0.07064899057149887 -0.09523072838783264
0.003134404309093952 -0.07040263712406158 -0.09609373658895493
0.0031197243370115757 -0.07001500576734543 -0.09696291387081146
0.003105060663074255 -0.06953376531600952 -0.09780488163232803

CELLS 50 150
2 0 1
2 1 2
2 2 3
2 3 4
2 4 5
2 5 6
2 6 7
2 7 8
2 8 9
2 9 10
2 10 11
2 11 12
2 12 13
2 13 14
2 14 15
2 15 16
2 16 17
2 17 18
2 18 19
2 19 20
2 20 21
2 21 22
2 22 23
2 23 24
2 24 25
2 25 26
2 26 27
2 27 28
2 28 29
2 29 30
2 30 31
2 31 32
2 32 33
2 33 34
2 34 35
2 35 36
2 36 37
2 37 38
2 38 39
2 39 40
2 40 41
2 41 42
2 42 43
2 43 44
2 44 45
2 45 46
2 46 47
2 47 48
2 48 49
2 49 50

CELL_TYPES 50
4
4
4
4
4
4
4
4
4
4
4
4
4
4
4
4
4
4
4
4
4
4
4
4
4
4
4
4
4
4
4
4
4
4
4
4
4
4
4
4
4
4
4
4
4
4
4
4
4
4

POINT_DATA 51

SCALARS zone float
LOOKUP_TABLE default
1.0
1.0
1.0
1.0
1.0
1.0
1.0
1.0
1.0
1.0
1.0
1.0
1.0
1.0
1.0
1.0
1.0
1.0
1.0
1.0
1.0
1.0
1.0
1.0
1.0
1.0
1.0
1.0
1.0
1.0
1.0
1.0
1.0
1.0
1.0
1.0
1.0
1.0
1.0
1.0
1.0
1.0
1.0
1.0
1.0
1.0
1.0
1.0
1.0
1.0
1.0

VECTORS normals float
-3.124873182969168e-5 -0.0009981485782191157 -0.0018260945798829198
-7.693334191571921e-5 -0.0021837425883859396 -0.003474560799077153
-0.0001838376629166305 -0.0024401696864515543 -0.0032022532541304827
-0.0003538915771059692 -0.0025589680299162865 -0.0030263145454227924
-0.0004319281433708965 -0.0025674160569906235 -0.00292764394544065
-0.0003430845681577921 -0.002338771941140294 -0.0029949869494885206
-0.00012902190792374313 -0.002052274765446782 -0.0031028389930725098
8.561566210119054e-5 -0.0019937162287533283 -0.0030510867945849895
0.0002117376570822671 -0.0019651593174785376 -0.0029783272184431553
0.00024546831264160573 -0.0018670085119083522 -0.0029542979318648577
0.0002179679140681401 -0.001863083685748279 -0.002864290727302432
0.00015853419608902186 -0.0018794246716424825 -0.0027600934263318777
9.012437658384442e-5 -0.0018261219374835491 -0.0027046611066907644
2.9283044568728656e-5 -0.0017399865901097655 -0.0026722184848040342
-1.4497647498501465e-5 -0.0016801700694486499 -0.0026213470846414566
-3.826815736829303e-5 -0.001665082760155201 -0.0025391560047864914
-4.407023516250774e-5 -0.0016766864573583005 -0.00243827560916543
-3.708776057465002e-5 -0.0016792990500107405 -0.0023436909541487694
-2.319276609341614e-5 -0.0016471883282065392 -0.0022734198719263077
-7.068673312460305e-6 -0.001580936717800796 -0.0022270544432103634
8.128289664455224e-6 -0.0015008728951215744 -0.0021903603337705135
2.053066054941155e-5 -0.001428963732905686 -0.00214795651845634
2.9310647732927464e-5 -0.0013753059320151806 -0.0020927726291120052
3.440070213400759e-5 -0.0013388911029323936 -0.0020255153067409992
3.623620068538003e-5 -0.0013142809038981795 -0.0019499922636896372
3.555265357135795e-5 -0.0012956346618011594 -0.0018702931702136993
3.3228800020879135e-5 -0.001277622883208096 -0.0017901498358696701
3.0166916985763237e-5 -0.0012556487927213311 -0.00171278091147542
2.720216980378609e-5 -0.0012260421644896269 -0.001640756381675601
2.4974500774987977e-5 -0.0011867129942402244 -0.0015755397034808993
2.3779994080541655e-5 -0.001138069899752736 -0.0015168447280302644
2.3568165488541126e-5 -0.0010828693630173802 -0.0014627411728724837
2.406723433523439e-5 -0.0010251199128106236 -0.0014104223810136318
2.4901799406507052e-5 -0.0009690987062640488 -0.0013568936847150326
2.5678929887362756e-5 -0.0009186600218527019 -0.0012994558783248067
2.604758265078999e-5 -0.0008767851395532489 -0.0012360216351225972
2.573603342170827e-5 -0.0008449783199466765 -0.0011655377456918359
2.45715600613039e-5 -0.0008214938570745288 -0.0010892264544963837
2.2486185116576962e-5 -0.0008003900293260813 -0.0010112480958923697
1.951184640347492e-5 -0.0007736445404589176 -0.0009372202330268921
1.5767878721817397e-5 -0.0007340390584431589 -0.0008721969788894057
1.1443358744145371e-5 -0.0006766552105545998 -0.0008196222479455172
6.776487680326682e-6 -0.0005974838859401643 -0.0007823032792657614
2.0328297978267074e-6 -0.0004915891913697124 -0.000763696210924536
-2.5160579752991907e-6 -0.0003559569304343313 -0.0007659116527065635
-6.612403467443073e-6 -0.00019389776571188122 -0.0007866313681006432
-1.002946464723209e-5 -1.6183759726118296e-5 -0.000818312750197947
-1.2585563126776831e-5 0.00016057277389336377 -0.0008493236964568496
-1.4154468772176187e-5 0.0003169915289618075 -0.0008660939638502896
-1.4671891221951226e-5 0.00043443622416816646 -0.0008555743261240422
-7.331854249059689e-6 0.00024062095326371494 -0.0004209851904306561

CELL_DATA 50

VECTORS liftinglineloading               float
0.1699965000152588 0.12142318487167358 -0.0701037049293518
0.27873462438583374 0.22559945285320282 -0.13024990260601044
-0.13946029543876648 0.07752979546785355 -0.04476184770464897
0.10015518963336945 0.07746247202157974 -0.04472297802567482
0.2915060520172119 0.11236388981342316 -0.06487332284450531
-0.5727447271347046 0.3989787697792053 -0.23035050928592682
-2.308777093887329 0.9389498829841615 -0.5421029925346375
-4.2076592445373535 1.4920976161956787 -0.8614629507064819
-6.150051116943359 2.000699758529663 -1.1551045179367065
-8.462699890136719 2.4839675426483154 -1.4341193437576294
-10.798101425170898 2.9322149753570557 -1.6929150819778442
-12.571089744567871 3.2099969387054443 -1.8532925844192505
-13.81821346282959 3.328872442245484 -1.92192542552948
-14.58647346496582 3.3783695697784424 -1.950502634048462
-15.088928222656248 3.3468172550201416 -1.932285785675049
-15.419915199279785 3.2957770824432373 -1.902817726135254
-15.467560768127441 3.122901439666748 -1.803007960319519
-15.440597534179688 2.9859464168548584 -1.7239369153976443
-15.46027660369873 2.858220338821411 -1.65019428730011
-14.961408615112305 2.6584949493408203 -1.5348827838897705
-15.073573112487793 2.5681512355804443 -1.4827227592468262
-15.210144042968748 2.481912851333618 -1.43293297290802
-15.31662178039551 2.358785629272461 -1.36184561252594
-15.639969825744627 2.331430673599243 -1.3460521697998047
-16.01036262512207 2.237173557281494 -1.2916327714920044
-16.39803123474121 2.1764090061187744 -1.2565503120422363
-16.705602645874023 2.121779680252075 -1.2250100374221802
-17.231853485107422 2.0854952335357666 -1.2040612697601318
-17.633636474609375 2.017246723175049 -1.1646579504013062
-18.483673095703125 1.97184157371521 -1.1384432315826416
-18.600492477416992 1.878208518028259 -1.0843842029571533
-18.712961196899414 1.7799274921417236 -1.0276416540145874
-18.72895050048828 1.6734360456466675 -0.9661587476730347
-18.835947036743164 1.534098744392395 -0.8857123255729675
-18.571279525756836 1.4701933860778809 -0.8488165736198424
-18.252592086791992 1.3699214458465576 -0.7909245491027832
-17.844511032104492 1.2895396947860718 -0.7445160746574402
-17.10786247253418 1.2198470830917358 -0.7042790055274963
-16.484039306640625 1.1841849088668823 -0.6836894750595093
-15.754190444946289 1.1413989067077637 -0.6589869856834412
-15.079915046691895 1.0990259647369385 -0.6345229148864746
-13.660600662231444 1.0270781517028809 -0.5929838418960571
-12.013253211975098 1.0053449869155884 -0.5804361701011658
-10.106203079223633 1.0778627395629883 -0.622304379940033
-8.470364570617676 1.2094814777374268 -0.698294460773468
-6.869040489196778 1.2983074188232422 -0.7495781183242798
-5.569843769073486 1.310835361480713 -0.7568111419677734
-4.336977481842041 1.2900482416152954 -0.7448096871376038
-3.003370523452759 1.2794983386993408 -0.7387186884880066
-1.6796958446502686 1.3117531538009644 -0.7573410272598267