# vtk DataFile Version 4.0
 
ASCII
DATASET UNSTRUCTURED_GRID
POINTS 51 float
0.0032922609243541956 -0.005155537277460098 -0.005427201744168997
0.003229763358831405 -0.005421314854174852 -0.009580881334841251
0.003138394095003605 -0.006176996976137161 -0.013571023941040039
0.0028620881494134665 -0.007137743290513755 -0.017447855323553085
0.0024306110572069883 -0.008257471024990082 -0.02121950127184391
0.0019982317462563515 -0.009316929616034031 -0.02492462284862995
0.0017444419208914044 -0.009965293109416962 -0.028625076636672016
0.001740187988616526 -0.01041428279131651 -0.03228353336453438
0.0019156732596457005 -0.011000243946909904 -0.03584068641066551
0.00216366327367723 -0.011458969675004482 -0.03934312239289284
0.002406609710305929 -0.011887332424521446 -0.04277375712990761
0.0025995990727096796 -0.012415020726621151 -0.046109724789857864
0.002723678248003125 -0.01296107564121485 -0.04936530441045761
0.0027798479422926903 -0.013438999652862547 -0.052555739879608154
0.002782244235277176 -0.013856345787644385 -0.05567970871925355
0.0027508526109158993 -0.01426884438842535 -0.05872737616300582
0.0027057079132646322 -0.014728313311934471 -0.06168961152434349
0.0026627120096236467 -0.015247112140059473 -0.06456422805786133
0.002631532493978739 -0.015791263431310654 -0.06735722720623016
0.002616326557472348 -0.01631125435233116 -0.0700773298740387
0.002617395017296076 -0.016774507239460945 -0.07273028790950775
0.002632583025842905 -0.017180386930704117 -0.07531620562076569
0.0026584563311189413 -0.01754913665354252 -0.07783151417970657
0.0026912044268101454 -0.01790440082550049 -0.08027205616235733
0.0027272577863186598 -0.01826399192214012 -0.08263467997312546
0.0027636769227683544 -0.018638482317328453 -0.08491752296686172
0.0027983631007373333 -0.019031640142202377 -0.08711991459131241
0.0028301344718784094 -0.01944122090935707 -0.08924226462841034
0.002858696971088648 -0.01985994353890419 -0.09128585457801819
0.002884538844227791 -0.020276736468076706 -0.09325262159109116
0.002908645896241069 -0.02067929320037365 -0.09514474868774414
0.0029320986941456795 -0.021057527512311935 -0.09696401655673981
0.002955782227218151 -0.02140575833618641 -0.09871142357587814
0.002980233170092106 -0.021723534911870956 -0.10038703680038452
0.003005585866048932 -0.022015465423464775 -0.10199006646871567
0.00303159118629992 -0.022290365770459175 -0.10351894050836562
0.0030576810240745544 -0.022560007870197296 -0.10497158765792847
0.003083063056692481 -0.022836830466985703 -0.10634581744670867
0.0031068241223692894 -0.023128407076001167 -0.10764029622077943
0.0031280354596674442 -0.023432886227965355 -0.10885533690452576
0.00314584793522954 -0.023738553747534752 -0.10999302566051485
0.0031595712061971426 -0.024026203900575638 -0.11105673760175705
0.003168734721839428 -0.024272296577692032 -0.11205062270164488
0.003173124277964235 -0.024447981268167496 -0.11297976225614549
0.003172800177708268 -0.024517854675650597 -0.1138504147529602
0.0031680921092629433 -0.02444581873714924 -0.11466893553733824
0.0031595753971487284 -0.024204427376389503 -0.11544016748666763
0.003148033283650875 -0.0237834844738245 -0.1161658987402916
0.003134404309093952 -0.02319549024105072 -0.11684393882751463
0.0031197243370115757 -0.02247684821486473 -0.11746786534786224
0.003105060663074255 -0.021684862673282623 -0.11802756786346436

CELLS 50 150
2 0 1
2 1 2
2 2 3
2 3 4
2 4 5
2 5 6
2 6 7
2 7 8
2 8 9
2 9 10
2 10 11
2 11 12
2 12 13
2 13 14
2 14 15
2 15 16
2 16 17
2 17 18
2 18 19
2 19 20
2 20 21
2 21 22
2 22 23
2 23 24
2 24 25
2 25 26
2 26 27
2 27 28
2 28 29
2 29 30
2 30 31
2 31 32
2 32 33
2 33 34
2 34 35
2 35 36
2 36 37
2 37 38
2 38 39
2 39 40
2 40 41
2 41 42
2 42 43
2 43 44
2 44 45
2 45 46
2 46 47
2 47 48
2 48 49
2 49 50

CELL_TYPES 50
4
4
4
4
4
4
4
4
4
4
4
4
4
4
4
4
4
4
4
4
4
4
4
4
4
4
4
4
4
4
4
4
4
4
4
4
4
4
4
4
4
4
4
4
4
4
4
4
4
4

POINT_DATA 51

SCALARS zone float
LOOKUP_TABLE default
1.0
1.0
1.0
1.0
1.0
1.0
1.0
1.0
1.0
1.0
1.0
1.0
1.0
1.0
1.0
1.0
1.0
1.0
1.0
1.0
1.0
1.0
1.0
1.0
1.0
1.0
1.0
1.0
1.0
1.0
1.0
1.0
1.0
1.0
1.0
1.0
1.0
1.0
1.0
1.0
1.0
1.0
1.0
1.0
1.0
1.0
1.0
1.0
1.0
1.0
1.0

VECTORS normals float
-3.124873182969168e-5 -0.00013288889022078365 -0.0020768395625054836
-7.693334191571921e-5 -0.0005107300239615142 -0.0040719108656048775
-0.0001838376629166305 -0.0008582141017541288 -0.003933487460017204
-0.0003538915771059692 -0.0010402367915958166 -0.003824239131063223
-0.0004319281433708965 -0.0010895933955907822 -0.0037383832968771458
-0.0003430845681577921 -0.0008539111586287617 -0.0037027876824140544
-0.00012902190792374313 -0.0005486762383952737 -0.0036794559564441442
8.561566210119054e-5 -0.0005174756515771151 -0.003607804654166102
0.0002117376570822671 -0.0005223436746746302 -0.003529793350026011
0.00024546831264160573 -0.0004435440350789577 -0.0034665351267904048
0.0002179679140681401 -0.0004780256131198258 -0.0033833023626357317
0.00015853419608902186 -0.000536871375516057 -0.003295773407444358
9.012437658384442e-5 -0.000511989404913038 -0.0032230077777057886
2.9283044568728656e-5 -0.00044763507321476936 -0.003157202387228608
-1.4497647498501465e-5 -0.0004149220767430961 -0.0030858179088681936
-3.826815736829303e-5 -0.0004359838494565338 -0.0030049511697143316
-4.407023516250774e-5 -0.000489134166855365 -0.0029184266459196806
-3.708776057465002e-5 -0.000531475234311074 -0.0028338078409433365
-2.319276609341614e-5 -0.0005320709315128624 -0.0027565499767661095
-7.068673312460305e-6 -0.0004916213802061975 -0.0026865294203162193
8.128289664455224e-6 -0.00043456643470562994 -0.0026194369420409203
2.053066054941155e-5 -0.0003873152891173959 -0.002550615696236491
2.9310647732927464e-5 -0.00036200653994455934 -0.002477925503626466
3.440070213400759e-5 -0.0003574276634026319 -0.0024015801027417183
3.623620068538003e-5 -0.0003670406877063215 -0.002322732238098979
3.555265357135795e-5 -0.000383823731681332 -0.002242620103061199
3.3228800020879135e-5 -0.0004013695870526135 -0.002162373624742031
3.0166916985763237e-5 -0.0004141517565585673 -0.002082966733723879
2.720216980378609e-5 -0.0004177579830866307 -0.0020051782485097647
2.4974500774987977e-5 -0.00040967535460367793 -0.0019294505473226307
2.3779994080541655e-5 -0.00039039531839080155 -0.0018556972499936817
2.3568165488541126e-5 -0.0003632318403106183 -0.0017833340680226684
2.406723433523439e-5 -0.00033300393261015415 -0.0017115112859755757
2.4901799406507052e-5 -0.00030485366005450487 -0.0016393220284953716
2.5678929887362756e-5 -0.00028341496363282204 -0.0015659494092687964
2.604758265078999e-5 -0.00027227189275436103 -0.0014907614095136523
2.573603342170827e-5 -0.0002732329012360424 -0.001413439167663455
2.45715600613039e-5 -0.00028419928275980055 -0.0013343526516109705
2.2486185116576962e-5 -0.0002980278222821653 -0.0012547614751383662
1.951184640347492e-5 -0.0003050736850127578 -0.00117636623326689
1.5767878721817397e-5 -0.0002966589236166328 -0.001100697205401957
1.1443358744145371e-5 -0.00026687057106755674 -0.0010287968907505274
6.776487680326682e-6 -0.00021088865469209847 -0.0009615151793695986
2.0328297978267074e-6 -0.00012277915084268898 -0.0008998984121717512
-2.5160579752991907e-6 1.0816985422934522e-6 -0.0008445855928584933
-6.612403467443073e-6 0.0001567137223901227 -0.000794874911662191
-1.002946464723209e-5 0.00033116646227426827 -0.0007484827656298876
-1.2585563126776831e-5 0.0005044680438004434 -0.0007018877076916397
-1.4154468772176187e-5 0.0006533190025947988 -0.000650981324724853
-1.4671891221951226e-5 0.0007553142495453358 -0.0005918130045756698
-7.331854249059689e-6 0.00039599265437573195 -0.0002798513451125473

CELL_DATA 50

VECTORS liftinglineloading               float
0.20489224791526794 0.15839700400829315 -0.013857943005859852
0.32613781094551086 0.2900060713291168 -0.025372244417667385
-0.280059278011322 0.19980542361736298 -0.01748071052134037
-0.01751861348748207 0.09524039179086685 -0.008332454599440098
0.44402891397476196 0.06617574393749237 -0.005789627321064472
-0.3141665756702423 0.3658447265625 -0.03200726583600044
-2.0063352584838867 0.9887214303016661 -0.08650191873311996
-3.930635690689087 1.6475853919982908 -0.14414504170417786
-5.928133487701416 2.2639012336730957 -0.19806568324565887
-8.561968803405762 2.881349563598633 -0.252085417509079
-10.997908592224121 3.4103085994720463 -0.2983633577823639
-12.833361625671387 3.7304563522338867 -0.3263726234436035
-14.028322219848633 3.860479831695556 -0.3377482295036316
-14.805876731872559 3.9170184135437007 -0.3426946997642517
-15.319210052490234 3.881760597229004 -0.3396100401878357
-15.655646324157715 3.8236501216888428 -0.33452603220939636
-15.739372253417969 3.6300213336944585 -0.31758570671081543
-15.756555557250975 3.4754960536956787 -0.3040665090084076
-15.820095062255861 3.3269133567810054 -0.2910672128200531
-15.39822292327881 3.102080821990967 -0.2713969051837921
-15.309678077697754 2.980611801147461 -0.2607697546482086
-15.368609428405762 2.8753321170806885 -0.25155895948410034
-15.478259086608887 2.7341558933258057 -0.23920764029026034
-15.709501266479492 2.696462631225586 -0.23590992391109464
-16.04731559753418 2.585538864135742 -0.22620534896850583
-16.414066314697266 2.514470100402832 -0.2199876308441162
-16.69245147705078 2.4497737884521484 -0.21432742476463318
-17.203540802001953 2.4080569744110107 -0.2106776833534241
-17.589574813842773 2.328460693359375 -0.20371390879154205
-18.434343338012695 2.2765052318573 -0.199168398976326
-18.6035099029541 2.169487237930298 -0.1898055374622345
-18.708738327026367 2.0559298992156982 -0.17987056076526642
-18.7237606048584 1.9327607154846191 -0.16909465193748474
-18.849573135375977 1.7710043191909788 -0.15494279563426971
-18.586259841918945 1.6966313123703003 -0.14843600988388062
-18.26869773864746 1.580368161201477 -0.13826429843902588
-17.86113166809082 1.4871724843978882 -0.1301107257604599
-17.124845504760742 1.4065066576004028 -0.12305338680744171
-16.451807022094727 1.3660634756088257 -0.1195150688290596
-15.72482204437256 1.316352128982544 -0.11516588926315308
-15.087644577026367 1.266799807548523 -0.11083061993122101
-13.658048629760744 1.18394136428833 -0.10358145087957381
-12.004993438720703 1.158373475074768 -0.10134454816579819
-10.09320068359375 1.2415136098861694 -0.10861836373806
-8.475900650024414 1.393357515335083 -0.12190298736095428
-6.873741626739502 1.495694875717163 -0.13085635006427765
-5.574855804443359 1.51014244556427 -0.13212034106254578
-4.321911811828613 1.4837110042572021 -0.12980788946151733
-2.9920337200164795 1.4713776111602783 -0.12872886657714844
-1.6728073358535767 1.508589744567871 -0.13198450207710266