# vtk DataFile Version 4.0
 
ASCII
DATASET UNSTRUCTURED_GRID
POINTS 51 float
0.0032922609243541956 -0.005427201744168997 0.005155537277460098
0.003229763358831405 -0.009580881334841251 0.005421314854174852
0.003138394095003605 -0.013571023941040039 0.006176996976137161
0.0028620881494134665 -0.017447855323553085 0.007137743290513755
0.0024306110572069883 -0.02121950127184391 0.008257471024990082
0.0019982317462563515 -0.02492462284862995 0.009316929616034031
0.0017444419208914044 -0.028625076636672016 0.009965293109416962
0.001740187988616526 -0.03228353336453438 0.01041428279131651
0.0019156732596457005 -0.03584068641066551 0.011000243946909904
0.00216366327367723 -0.03934312239289284 0.011458969675004482
0.002406609710305929 -0.04277375712990761 0.011887332424521446
0.0025995990727096796 -0.046109724789857864 0.012415020726621151
0.002723678248003125 -0.04936530441045761 0.01296107564121485
0.0027798479422926903 -0.052555739879608154 0.013438999652862547
0.002782244235277176 -0.05567970871925355 0.013856345787644385
0.0027508526109158993 -0.05872737616300582 0.01426884438842535
0.0027057079132646322 -0.06168961152434349 0.014728313311934471
0.0026627120096236467 -0.06456422805786133 0.015247112140059473
0.002631532493978739 -0.06735722720623016 0.015791263431310654
0.002616326557472348 -0.0700773298740387 0.01631125435233116
0.002617395017296076 -0.07273028790950775 0.016774507239460945
0.002632583025842905 -0.07531620562076569 0.017180386930704117
0.0026584563311189413 -0.07783151417970657 0.01754913665354252
0.0026912044268101454 -0.08027205616235733 0.01790440082550049
0.0027272577863186598 -0.08263467997312546 0.01826399192214012
0.0027636769227683544 -0.08491752296686172 0.018638482317328453
0.0027983631007373333 -0.08711991459131241 0.019031640142202377
0.0028301344718784094 -0.08924226462841034 0.01944122090935707
0.002858696971088648 -0.09128585457801819 0.01985994353890419
0.002884538844227791 -0.09325262159109116 0.020276736468076706
0.002908645896241069 -0.09514474868774414 0.02067929320037365
0.0029320986941456795 -0.09696401655673981 0.021057527512311935
0.002955782227218151 -0.09871142357587814 0.02140575833618641
0.002980233170092106 -0.10038703680038452 0.021723534911870956
0.003005585866048932 -0.10199006646871567 0.022015465423464775
0.00303159118629992 -0.10351894050836562 0.022290365770459175
0.0030576810240745544 -0.10497158765792847 0.022560007870197296
0.003083063056692481 -0.10634581744670867 0.022836830466985703
0.0031068241223692894 -0.10764029622077943 0.023128407076001167
0.0031280354596674442 -0.10885533690452576 0.023432886227965355
0.00314584793522954 -0.10999302566051485 0.023738553747534752
0.0031595712061971426 -0.11105673760175705 0.024026203900575638
0.003168734721839428 -0.11205062270164488 0.024272296577692032
0.003173124277964235 -0.11297976225614549 0.024447981268167496
0.003172800177708268 -0.1138504147529602 0.024517854675650597
0.0031680921092629433 -0.11466893553733824 0.02444581873714924
0.0031595753971487284 -0.11544016748666763 0.024204427376389503
0.003148033283650875 -0.1161658987402916 0.0237834844738245
0.003134404309093952 -0.11684393882751463 0.02319549024105072
0.0031197243370115757 -0.11746786534786224 0.02247684821486473
0.003105060663074255 -0.11802756786346436 0.021684862673282623

CELLS 50 150
2 0 1
2 1 2
2 2 3
2 3 4
2 4 5
2 5 6
2 6 7
2 7 8
2 8 9
2 9 10
2 10 11
2 11 12
2 12 13
2 13 14
2 14 15
2 15 16
2 16 17
2 17 18
2 18 19
2 19 20
2 20 21
2 21 22
2 22 23
2 23 24
2 24 25
2 25 26
2 26 27
2 27 28
2 28 29
2 29 30
2 30 31
2 31 32
2 32 33
2 33 34
2 34 35
2 35 36
2 36 37
2 37 38
2 38 39
2 39 40
2 40 41
2 41 42
2 42 43
2 43 44
2 44 45
2 45 46
2 46 47
2 47 48
2 48 49
2 49 50

CELL_TYPES 50
4
4
4
4
4
4
4
4
4
4
4
4
4
4
4
4
4
4
4
4
4
4
4
4
4
4
4
4
4
4
4
4
4
4
4
4
4
4
4
4
4
4
4
4
4
4
4
4
4
4

POINT_DATA 51

SCALARS zone float
LOOKUP_TABLE default
1.0
1.0
1.0
1.0
1.0
1.0
1.0
1.0
1.0
1.0
1.0
1.0
1.0
1.0
1.0
1.0
1.0
1.0
1.0
1.0
1.0
1.0
1.0
1.0
1.0
1.0
1.0
1.0
1.0
1.0
1.0
1.0
1.0
1.0
1.0
1.0
1.0
1.0
1.0
1.0
1.0
1.0
1.0
1.0
1.0
1.0
1.0
1.0
1.0
1.0
1.0

VECTORS normals float
-3.124873182969168e-5 -0.0020768395625054836 0.00013288889022078365
-7.693334191571921e-5 -0.0040719108656048775 0.0005107300239615142
-0.0001838376629166305 -0.003933487460017204 0.0008582141017541288
-0.0003538915771059692 -0.003824239131063223 0.0010402367915958166
-0.0004319281433708965 -0.0037383832968771458 0.0010895933955907822
-0.0003430845681577921 -0.0037027876824140544 0.0008539111586287617
-0.00012902190792374313 -0.0036794559564441442 0.0005486762383952737
8.561566210119054e-5 -0.003607804654166102 0.0005174756515771151
0.0002117376570822671 -0.003529793350026011 0.0005223436746746302
0.00024546831264160573 -0.0034665351267904048 0.0004435440350789577
0.0002179679140681401 -0.0033833023626357317 0.0004780256131198258
0.00015853419608902186 -0.003295773407444358 0.000536871375516057
9.012437658384442e-5 -0.0032230077777057886 0.000511989404913038
2.9283044568728656e-5 -0.003157202387228608 0.00044763507321476936
-1.4497647498501465e-5 -0.0030858179088681936 0.0004149220767430961
-3.826815736829303e-5 -0.0030049511697143316 0.0004359838494565338
-4.407023516250774e-5 -0.0029184266459196806 0.000489134166855365
-3.708776057465002e-5 -0.0028338078409433365 0.000531475234311074
-2.319276609341614e-5 -0.0027565499767661095 0.0005320709315128624
-7.068673312460305e-6 -0.0026865294203162193 0.0004916213802061975
8.128289664455224e-6 -0.0026194369420409203 0.00043456643470562994
2.053066054941155e-5 -0.002550615696236491 0.0003873152891173959
2.9310647732927464e-5 -0.002477925503626466 0.00036200653994455934
3.440070213400759e-5 -0.0024015801027417183 0.0003574276634026319
3.623620068538003e-5 -0.002322732238098979 0.0003670406877063215
3.555265357135795e-5 -0.002242620103061199 0.000383823731681332
3.3228800020879135e-5 -0.002162373624742031 0.0004013695870526135
3.0166916985763237e-5 -0.002082966733723879 0.0004141517565585673
2.720216980378609e-5 -0.0020051782485097647 0.0004177579830866307
2.4974500774987977e-5 -0.0019294505473226307 0.00040967535460367793
2.3779994080541655e-5 -0.0018556972499936817 0.00039039531839080155
2.3568165488541126e-5 -0.0017833340680226684 0.0003632318403106183
2.406723433523439e-5 -0.0017115112859755757 0.00033300393261015415
2.4901799406507052e-5 -0.0016393220284953716 0.00030485366005450487
2.5678929887362756e-5 -0.0015659494092687964 0.00028341496363282204
2.604758265078999e-5 -0.0014907614095136523 0.00027227189275436103
2.573603342170827e-5 -0.001413439167663455 0.0002732329012360424
2.45715600613039e-5 -0.0013343526516109705 0.00028419928275980055
2.2486185116576962e-5 -0.0012547614751383662 0.0002980278222821653
1.951184640347492e-5 -0.00117636623326689 0.0003050736850127578
1.5767878721817397e-5 -0.001100697205401957 0.0002966589236166328
1.1443358744145371e-5 -0.0010287968907505274 0.00026687057106755674
6.776487680326682e-6 -0.0009615151793695986 0.00021088865469209847
2.0328297978267074e-6 -0.0008998984121717512 0.00012277915084268898
-2.5160579752991907e-6 -0.0008445855928584933 -1.0816985422934522e-6
-6.612403467443073e-6 -0.000794874911662191 -0.0001567137223901227
-1.002946464723209e-5 -0.0007484827656298876 -0.00033116646227426827
-1.2585563126776831e-5 -0.0007018877076916397 -0.0005044680438004434
-1.4154468772176187e-5 -0.000650981324724853 -0.0006533190025947988
-1.4671891221951226e-5 -0.0005918130045756698 -0.0007553142495453358
-7.331854249059689e-6 -0.0002798513451125473 -0.00039599265437573195

CELL_DATA 50

VECTORS liftinglineloading               float
0.12199635803699493 -0.009526222944259644 -0.10888522863388062
0.15733592212200165 -0.014296665787696838 -0.16341163218021393
-0.0890905112028122 -0.0030089491046965122 -0.03439244627952576
0.23949028551578522 -0.007593350484967233 -0.08679239451885223
-0.01977742649614811 -0.02001647651195526 -0.22878938913345337
-0.9821357131004333 -0.05141428858041763 -0.5876680016517639
-2.799833297729492 -0.10534312576055527 -1.2040773630142212
-4.669042587280273 -0.1567631959915161 -1.791811466217041
-6.55054235458374 -0.2022070586681366 -2.311237335205078
-8.915791511535645 -0.24906791746616364 -2.8468592166900635
-11.33277702331543 -0.2941440939903259 -3.3620824813842773
-13.076536178588867 -0.3189806640148163 -3.645965576171875
-14.261035919189453 -0.3299733102321625 -3.7716121673583984
-15.037115097045898 -0.33494260907173157 -3.8284115791320805
-15.56429386138916 -0.33295339345932007 -3.805674552917481
-15.99869441986084 -0.32969895005226135 -3.768476247787475
-16.092105865478516 -0.31486085057258606 -3.5988759994506836
-16.13973617553711 -0.30199795961380005 -3.4518525600433354
-16.175928115844727 -0.2882511019706726 -3.2947249412536626
-15.750321388244629 -0.2693587839603424 -3.0787851810455322
-15.609375953674316 -0.25865688920021057 -2.9564616680145264
-15.491290092468263 -0.24791158735752106 -2.8336424827575684
-15.60088062286377 -0.2368105500936508 -2.706757068634033
-15.820966720581055 -0.23335374891757965 -2.667245626449585
-16.10771369934082 -0.22349832952022552 -2.5545976161956787
-16.408761978149414 -0.21723282337188718 -2.482982635498047
-16.731523513793945 -0.21194131672382355 -2.4225003719329834
-17.28202247619629 -0.20823831856250763 -2.3801748752593994
-17.749704360961914 -0.2015221118927002 -2.30340838432312
-18.676807403564453 -0.19674544036388397 -2.2488105297088623
-18.907730102539062 -0.1870274692773819 -2.1377339363098145
-19.099157333374023 -0.1767042875289917 -2.0197393894195557
-19.192501068115234 -0.1655081957578659 -1.8917673826217651
-19.41635513305664 -0.15103745460510254 -1.7263659238815308
-19.216073989868164 -0.14439813792705536 -1.6504782438278198
-18.957597732543945 -0.13443082571029663 -1.5365513563156128
-18.606843948364258 -0.1266748011112213 -1.447899580001831
-17.832780838012695 -0.11996085196733475 -1.3711588382720947
-17.19512939453125 -0.11685260385274887 -1.3356313705444336
-16.507431030273438 -0.11277220398187639 -1.288992166519165
-15.805402755737305 -0.10862556844949724 -1.241595983505249
-14.380517959594725 -0.1016094610095024 -1.1614015102386475
-12.657393455505371 -0.10073654353618622 -1.1514239311218262
-10.704980850219727 -0.1086682602763176 -1.2420839071273804
-9.040177345275879 -0.12360507249832153 -1.412812352180481
-7.42874002456665 -0.1328984498977661 -1.5190362930297852
-6.086098670959473 -0.1347055733203888 -1.539691686630249
-4.791561126708984 -0.13286428153514862 -1.5186457633972168
-3.531802654266357 -0.13306213915348053 -1.5209071636199951
-2.061382293701172 -0.13639718294143677 -1.5590269565582275