# vtk DataFile Version 4.0
 
ASCII
DATASET UNSTRUCTURED_GRID
POINTS 51 float
0.0032922609243541956 -0.0029884078539907932 -0.006863199174404144
0.003229763358831405 -0.001817515352740884 -0.01085728220641613
0.003138394095003605 -0.0011629151413217187 -0.014865248464047907
0.0028620881494134665 -0.0007397664012387395 -0.018836872652173042
0.0024306110572069883 -0.0005019872914999723 -0.02276403084397316
0.0019982317462563515 -0.00023032740864437076 -0.026608061045408245
0.0017444419208914044 0.0004260406421963126 -0.030307104811072353
0.001740187988616526 0.001255394658073783 -0.0338984951376915
0.0019156732596457005 0.0019213883206248286 -0.03744153305888176
0.00216366327367723 0.002688230713829398 -0.040889639407396317
0.002406609710305929 0.0034590477589517827 -0.04425989091396332
0.0025995990727096796 0.004104151390492916 -0.04757515713572502
0.002723678248003125 0.0047045014798641205 -0.05082115903496742
0.0027798479422926903 0.005346593447029591 -0.053982652723789215
0.002782244235277176 0.006022876128554344 -0.05706096068024635
0.0027508526109158993 0.0066776187159121045 -0.06006591394543648
0.0027057079132646322 0.007259002421051264 -0.06300665438175201
0.0026627120096236467 0.00775466812774539 -0.06588535010814667
0.002631532493978739 0.00819859467446804 -0.0686960220336914
0.002616326557472348 0.008640293031930923 -0.07142993062734604
0.002617395017296076 0.009112343192100525 -0.07408133149147034
0.002632583025842905 0.00961537566035986 -0.07665012031793594
0.0026584563311189413 0.010129151865839958 -0.07913985848426819
0.0026912044268101454 0.010630027391016483 -0.08155472576618195
0.0027272577863186598 0.011100185103714466 -0.08389785140752792
0.0027636769227683544 0.011529059149324894 -0.08617110550403595
0.0027983631007373333 0.01191287487745285 -0.08837515115737915
0.0028301344718784094 0.012253881432116032 -0.09050958603620529
0.002858696971088648 0.012559358030557632 -0.0925731435418129
0.002884538844227791 0.012840376235544683 -0.09456385672092438
0.002908645896241069 0.013109241612255573 -0.09647955745458603
0.0029320986941456795 0.013376044109463693 -0.09831847250461578
0.002955782227218151 0.013646462000906466 -0.10007959604263306
0.002980233170092106 0.013920944184064865 -0.10176284611225128
0.003005585866048932 0.014194886200129986 -0.10336904227733612
0.00303159118629992 0.014459471218287945 -0.10489973425865172
0.0030576810240745544 0.014702923595905302 -0.10635700076818466
0.003083063056692481 0.014912810176610947 -0.107743039727211
0.0031068241223692894 0.015081554651260376 -0.1090591698884964
0.0031280354596674442 0.015211008489131927 -0.11030507832765579
0.00314584793522954 0.015312885865569116 -0.11147870123386383
0.0031595712061971426 0.015406393446028233 -0.11257664114236832
0.003168734721839428 0.01551507133990526 -0.11359475553035735
0.003173124277964235 0.015667768195271492 -0.11452795565128326
0.003172800177708268 0.015899889171123505 -0.11536999791860579
0.0031680921092629433 0.01624753139913082 -0.11611451208591461
0.0031595753971487284 0.01673814095556736 -0.11675667017698288
0.003148033283650875 0.017381912097334862 -0.11729466915130617
0.003134404309093952 0.018166350200772285 -0.11773071438074112
0.0031197243370115757 0.019055048003792763 -0.11807122081518172
0.003105060663074255 0.019990701228380203 -0.11832629144191743

CELLS 50 150
2 0 1
2 1 2
2 2 3
2 3 4
2 4 5
2 5 6
2 6 7
2 7 8
2 8 9
2 9 10
2 10 11
2 11 12
2 12 13
2 13 14
2 14 15
2 15 16
2 16 17
2 17 18
2 18 19
2 19 20
2 20 21
2 21 22
2 22 23
2 23 24
2 24 25
2 25 26
2 26 27
2 27 28
2 28 29
2 29 30
2 30 31
2 31 32
2 32 33
2 33 34
2 34 35
2 35 36
2 36 37
2 37 38
2 38 39
2 39 40
2 40 41
2 41 42
2 42 43
2 43 44
2 44 45
2 45 46
2 46 47
2 47 48
2 48 49
2 49 50

CELL_TYPES 50
4
4
4
4
4
4
4
4
4
4
4
4
4
4
4
4
4
4
4
4
4
4
4
4
4
4
4
4
4
4
4
4
4
4
4
4
4
4
4
4
4
4
4
4
4
4
4
4
4
4

POINT_DATA 51

SCALARS zone float
LOOKUP_TABLE default
1.0
1.0
1.0
1.0
1.0
1.0
1.0
1.0
1.0
1.0
1.0
1.0
1.0
1.0
1.0
1.0
1.0
1.0
1.0
1.0
1.0
1.0
1.0
1.0
1.0
1.0
1.0
1.0
1.0
1.0
1.0
1.0
1.0
1.0
1.0
1.0
1.0
1.0
1.0
1.0
1.0
1.0
1.0
1.0
1.0
1.0
1.0
1.0
1.0
1.0
1.0

VECTORS normals float
-3.124873182969168e-5 0.0005854462506249547 -0.001997041516005993
-7.693334191571921e-5 0.0009127463563345373 -0.004001024644821882
-0.0001838376629166305 0.0005388744757510722 -0.003989795688539743
-0.0003538915771059692 0.0003304639249108732 -0.0039493911899626255
-0.0004319281433708965 0.00025471948902122676 -0.0038855941966176033
-0.0003430845681577921 0.0004640139522962272 -0.0037715369835495953
-0.00012902190792374313 0.0007428610697388649 -0.0036452158819884066
8.561566210119054e-5 0.0007476737955585122 -0.003567214589565993
0.0002117376570822671 0.0007164179696701467 -0.0034955728333443403
0.00024546831264160573 0.0007688297773711383 -0.0034091784618794914
0.0002179679140681401 0.0007079603965394199 -0.0033427586313337083
0.00015853419608902186 0.0006227267440408468 -0.0032806347589939833
9.012437658384442e-5 0.0006212209700606763 -0.003203747328370809
2.9283044568728656e-5 0.0006591874407604337 -0.0031199001241475344
-1.4497647498501465e-5 0.0006655126344412565 -0.003041632007807493
-3.826815736829303e-5 0.000618063029833138 -0.0029728456865996122
-4.407023516250774e-5 0.0005385248805396259 -0.0029097176156938076
-3.708776057465002e-5 0.0004697960102930665 -0.0028446835931390524
-2.319276609341614e-5 0.0004428125103004277 -0.00277228862978518
-7.068673312460305e-6 0.00045687420060858125 -0.002692656358703971
8.128289664455224e-6 0.00048754134331829846 -0.0026100960094481707
2.053066054941155e-5 0.0005084046279080212 -0.0025292644277215004
2.9310647732927464e-5 0.0005073255742900074 -0.00245230202563107
3.440070213400759e-5 0.0004855166480410844 -0.0023789945989847183
3.623620068538003e-5 0.00044951582094654435 -0.0023081896360963583
3.555265357135795e-5 0.00040634494507685304 -0.002238648943603039
3.3228800020879135e-5 0.0003624112578108907 -0.002169242827221751
3.0166916985763237e-5 0.00032324125641025603 -0.002098996890708804
2.720216980378609e-5 0.0002932472270913422 -0.0020271327812224627
2.4974500774987977e-5 0.0002749420527834445 -0.001953207654878497
2.3779994080541655e-5 0.00026783422799780965 -0.0018773081246763468
2.3568165488541126e-5 0.0002686099032871425 -0.001800018479116261
2.406723433523439e-5 0.0002724499790929258 -0.0017221885500475764
2.4901799406507052e-5 0.00027421244885772467 -0.0016447249799966812
2.5678929887362756e-5 0.0002692632842808962 -0.0015684447716921568
2.604758265078999e-5 0.0002540185523685068 -0.0014939800603315234
2.573603342170827e-5 0.0002266697265440598 -0.0014216494746506214
2.45715600613039e-5 0.00018931551312562078 -0.0013510832795873284
2.2486185116576962e-5 0.00014909917081240565 -0.0012810216285288334
1.951184640347492e-5 0.00011566549073904751 -0.0012097640428692102
1.5767878721817397e-5 9.769241296453401e-5 -0.0011357803596183658
1.1443358744145371e-5 0.0001010929627227597 -0.001058027963154018
6.776487680326682e-6 0.00013068703992757946 -0.0009756568470038474
2.0328297978267074e-6 0.00019240871188230813 -0.0008876208448782562
-2.5160579752991907e-6 0.0002898817474488169 -0.000793280894868076
-6.612403467443073e-6 0.00041912595042958856 -0.0006933388067409396
-1.002946464723209e-5 0.0005671908729709685 -0.0005900781252421439
-1.2585563126776831e-5 0.0007141046808101237 -0.00048702044296078384
-1.4154468772176187e-5 0.0008365677786059677 -0.00038827405660413206
-1.4671891221951226e-5 0.0009121752227656543 -0.0002977896074298769
-7.331854249059689e-6 0.0004678261757362634 -0.00012753676855936646

CELL_DATA 50

VECTORS liftinglineloading               float
0.09559386223554611 0.08977607637643814 0.024055426940321922
0.07984844595193863 0.09674940258264542 0.025923924520611763
-0.030066370964050293 0.03227481618523598 0.008648010902106762
0.23940259218215942 0.09776943922042847 0.026197241619229317
-0.1228611022233963 0.2516489624977112 0.06742914021015167
-1.0632820129394531 0.5903039574623108 0.15817147493362427
-2.76806378364563 1.150962233543396 0.30839937925338745
-4.527008533477783 1.695005178451538 0.4541752636432647
-6.2685322761535645 2.184300422668457 0.5852815508842468
-8.492589950561523 2.6940109729766846 0.721858024597168
-10.832547187805176 3.1894314289093018 0.8546055555343627
-12.522712707519531 3.4782907962799072 0.9320051670074463
-13.65869140625 3.6062660217285156 0.9662960767745972
-14.416766166687013 3.668370962142944 0.9829370379447937
-14.936959266662596 3.6461641788482666 0.9769867658615111
-15.319548606872559 3.604431390762329 0.9658045172691345
-15.404609680175783 3.4295370578765865 0.9189416766166686
-15.413634300231932 3.286810159683228 0.8806981444358826
-15.447124481201172 3.1471734046936035 0.8432825803756714
-14.978466987609865 2.9336159229278564 0.7860600352287292
-14.805585861206056 2.8159923553466797 0.754542887210846
-14.810966491699219 2.721562385559082 0.7292404174804688
-14.747724533081056 2.5743942260742188 0.6898068785667419
-14.967101097106934 2.545727491378784 0.6821256279945374
-15.27448272705078 2.4468305110931396 0.6556262373924255
-15.59458065032959 2.3842766284942627 0.6388649940490723
-15.77359104156494 2.322516441345215 0.6223164200782776
-16.276588439941406 2.294450521469116 0.6147961616516113
-16.66157341003418 2.2229807376861572 0.5956459045410156
-17.56415557861328 2.184213638305664 0.5852583050727844
-17.872236251831055 2.0909345149993896 0.5602642297744751
-18.117198944091797 1.986114263534546 0.532177746295929
-18.266883850097656 1.8690502643585205 0.5008105039596558
-18.556095123291016 1.7102771997451782 0.4582673907279968
-18.411911010742188 1.6358987092971802 0.43833774328231806
-18.19920539855957 1.5212702751159668 0.40762317180633545
-17.88344955444336 1.4298558235168457 0.38312873244285583
-17.214040756225586 1.3510414361953735 0.36201047897338867
-16.60201644897461 1.3122200965881348 0.3516083359718323
-15.927538871765135 1.2644673585891724 0.33881300687789917
-15.277250289916992 1.2171406745910645 0.3261318802833557
-13.880306243896484 1.1374038457870483 0.304766446352005
-12.21258544921875 1.1174920797348022 0.29943111538887024
-10.288900375366211 1.2009221315383911 0.321786105632782
-8.653365135192871 1.3551901578903198 0.3631221354007721
-7.047074317932129 1.4558683633804321 0.39009878039360046
-5.730557918548584 1.4722986221313477 0.3945012390613556
-4.460834980010986 1.448872447013855 0.38822418451309204
-3.1017401218414307 1.438860535621643 0.38554149866104126
-1.744387984275818 1.4755314588546753 0.39536744356155396