# vtk DataFile Version 4.0
 
ASCII
DATASET UNSTRUCTURED_GRID
POINTS 51 float
0.0032922609243541956 0.0021223260555416346 -0.007178427185863257
0.003229763358831405 0.005586628802120686 -0.009485436603426933
0.003138394095003605 0.00866435281932354 -0.012134948745369911
0.0028620881494134665 0.011541415005922318 -0.014905394986271858
0.0024306110572069883 0.014247892424464226 -0.017760930582880974
0.0019982317462563515 0.01692689210176468 -0.020531009882688522
0.0017444419208914044 0.019807398319244385 -0.022942734882235527
0.001740187988616526 0.02275121957063675 -0.02516080066561699
0.0019156732596457005 0.025538822636008263 -0.02744683437049389
0.00216366327367723 0.028342656791210175 -0.02959531918168068
0.002406609710305929 0.03109949454665184 -0.0316816121339798
0.0025995990727096796 0.03372468426823616 -0.033806584775447845
0.002723678248003125 0.03627106919884682 -0.03590727224946022
0.0027798479422926903 0.038795106112957 -0.037916384637355804
0.002782244235277176 0.041291870176792145 -0.03983980044722557
0.0027508526109158993 0.04372498020529747 -0.04172087088227272
0.0027057079132646322 0.04606061428785324 -0.04359989985823631
0.0026627120096236467 0.04829070717096329 -0.04548650234937668
0.002631532493978739 0.05043743923306465 -0.04735424742102623
0.002616326557472348 0.05253311991691589 -0.049164626747369766
0.002617395017296076 0.054599020630121224 -0.050892289727926254
0.002632583025842905 0.056635551154613495 -0.052536752074956894
0.0026584563311189413 0.05862950161099434 -0.05411375686526298
0.0026912044268101454 0.060565438121557236 -0.055641692131757736
0.0027272577863186598 0.062431734055280685 -0.05713441967964172
0.0027636769227683544 0.06422148644924164 -0.058600157499313354
0.0027983631007373333 0.0659322440624237 -0.06004184111952782
0.0028301344718784094 0.06756546348333359 -0.061457723379135125
0.002858696971088648 0.06912589818239212 -0.06284213811159134
0.002884538844227791 0.07062077522277832 -0.06418648362159729
0.002908645896241069 0.07205812633037567 -0.06548117101192474
0.0029320986941456795 0.07344453781843185 -0.06671836227178574
0.002955782227218151 0.07478372007608414 -0.06789363920688629
0.002980233170092106 0.0760759562253952 -0.06900665163993835
0.003005585866048932 0.07731825113296509 -0.07006098330020905
0.00303159118629992 0.07850484549999237 -0.07106348872184753
0.0030576810240745544 0.07962805777788162 -0.07202333211898804
0.003083063056692481 0.0806797668337822 -0.07295018434524536
0.0031068241223692894 0.08165502548217773 -0.07384993135929108
0.0031280354596674442 0.08255504816770554 -0.07472114264965057
0.00314584793522954 0.08338747918605804 -0.07555470615625381
0.0031595712061971426 0.08416485041379929 -0.07633566856384277
0.003168734721839428 0.08490253239870071 -0.0770457312464714
0.003173124277964235 0.08561935275793076 -0.07766245305538177
0.003172800177708268 0.08633842319250107 -0.07815828919410706
0.0031680921092629433 0.08708330243825912 -0.07850516587495804
0.0031595753971487284 0.08787190169095993 -0.07868172973394394
0.003148033283650875 0.08871088176965714 -0.07868005335330963
0.003134404309093952 0.08959207683801651 -0.0785098522901535
0.0031197243370115757 0.09049173444509506 -0.07819945365190506
0.003105060663074255 0.09137243777513504 -0.0777934268116951

CELLS 50 150
2 0 1
2 1 2
2 2 3
2 3 4
2 4 5
2 5 6
2 6 7
2 7 8
2 8 9
2 9 10
2 10 11
2 11 12
2 12 13
2 13 14
2 14 15
2 15 16
2 16 17
2 17 18
2 18 19
2 19 20
2 20 21
2 21 22
2 22 23
2 23 24
2 24 25
2 25 26
2 26 27
2 27 28
2 28 29
2 29 30
2 30 31
2 31 32
2 32 33
2 33 34
2 34 35
2 35 36
2 36 37
2 37 38
2 38 39
2 39 40
2 40 41
2 41 42
2 42 43
2 43 44
2 44 45
2 45 46
2 46 47
2 47 48
2 48 49
2 49 50

CELL_TYPES 50
4
4
4
4
4
4
4
4
4
4
4
4
4
4
4
4
4
4
4
4
4
4
4
4
4
4
4
4
4
4
4
4
4
4
4
4
4
4
4
4
4
4
4
4
4
4
4
4
4
4

POINT_DATA 51

SCALARS zone float
LOOKUP_TABLE default
1.0
1.0
1.0
1.0
1.0
1.0
1.0
1.0
1.0
1.0
1.0
1.0
1.0
1.0
1.0
1.0
1.0
1.0
1.0
1.0
1.0
1.0
1.0
1.0
1.0
1.0
1.0
1.0
1.0
1.0
1.0
1.0
1.0
1.0
1.0
1.0
1.0
1.0
1.0
1.0
1.0
1.0
1.0
1.0
1.0
1.0
1.0
1.0
1.0
1.0
1.0

VECTORS normals float
-3.124873182969168e-5 0.0017321513732895255 -0.001153504941612482
-7.693334191571921e-5 0.003271013498306274 -0.0024782607797533274
-0.0001838376629166305 0.0029773928690701723 -0.002709978958591819
-0.0003538915771059692 0.002791769802570343 -0.002812991151586175
-0.0004319281433708965 0.002692738315090537 -0.0028128072153776884
-0.0003430845681577921 0.002779752714559436 -0.002590902615338564
-0.00012902190792374313 0.0029121642000973225 -0.002314895624294877
8.561566210119054e-5 0.0028657126240432262 -0.0022520492784678936
0.0002117376570822671 0.002795719075948 -0.0022172597236931324
0.00024546831264160573 0.0027803354896605015 -0.0021173879504203796
0.0002179679140681401 0.0026910128071904182 -0.002105633495375514
0.00015853419608902186 0.0025857877917587757 -0.002112830989062786
9.012437658384442e-5 0.0025352120865136385 -0.002054899698123336
2.9283044568728656e-5 0.0025104000233113766 -0.0019662645645439625
-1.4497647498501465e-5 0.0024649356491863728 -0.0019022419583052397
-3.826815736829303e-5 0.002384372055530548 -0.0018800486577674744
-4.407023516250774e-5 0.0022828644141554832 -0.0018828158499673011
-3.708776057465002e-5 0.002188412006944418 -0.0018771749455481768
-2.319276609341614e-5 0.0021212068386375904 -0.0018390619661659004
-7.068673312460305e-6 0.0020807920955121517 -0.0017690213862806559
8.128289664455224e-6 0.0020512158516794443 -0.0016860640607774258
2.053066054941155e-5 0.002015240490436554 -0.0016107327537611125
2.9310647732927464e-5 0.0019649432506412268 -0.0015524696791544557
3.440070213400759e-5 0.001901115640066564 -0.001510331523604691
3.623620068538003e-5 0.0018280248623341324 -0.0014792326837778091
3.555265357135795e-5 0.0017502541886642577 -0.0014537111856043339
3.3228800020879135e-5 0.001671985606662929 -0.0014287830563262105
3.0166916985763237e-5 0.0015968263614922762 -0.001400149310939014
2.720216980378609e-5 0.0015276562189683318 -0.001364378142170608
2.4974500774987977e-5 0.0014661154709756374 -0.0013195144711062312
2.3779994080541655e-5 0.001411883276887238 -0.0012659408384934068
2.3568165488541126e-5 0.0013627966400235891 -0.0012062350288033485
2.406723433523439e-5 0.0013157102512195706 -0.001144145498983562
2.4901799406507052e-5 0.0012672677403315902 -0.001083672046661377
2.5678929887362756e-5 0.0012144445208832622 -0.0010284192394465208
2.604758265078999e-5 0.0011549013433977962 -0.0009811751078814268
2.573603342170827e-5 0.001087457756511867 -0.0009433462400920689
2.45715600613039e-5 0.0010134836193174124 -0.000913300144020468
2.2486185116576962e-5 0.0009376414236612618 -0.0008854803745634853
1.951184640347492e-5 0.0008662262698635459 -0.000852384720928967
1.5767878721817397e-5 0.0008049022872000932 -0.0008072627824731172
1.1443358744145371e-5 0.0007575289346277714 -0.0007455151062458754
6.776487680326682e-6 0.0007272522198036313 -0.0006633925368078053
2.0328297978267074e-6 0.0007179452804848552 -0.0005562790902331471
-2.5160579752991907e-6 0.0007319734431803226 -0.0004213560314383357
-6.612403467443073e-6 0.0007667387253604829 -0.0002617193676996976
-1.002946464723209e-5 0.000813788326922804 -8.744282968109474e-5
-1.2585563126776831e-5 0.0008600866422057152 8.59383144415915e-5
-1.4154468772176187e-5 0.0008904258720576762 0.00024030019994825125
-1.4671891221951226e-5 0.0008901822147890925 0.00035821483470499516
-7.331854249059689e-6 0.0004403546918183565 0.0002030140458373353

CELL_DATA 50

VECTORS liftinglineloading               float
0.10883903503417969 0.05763387307524681 0.08230970054864883
0.12038581073284149 0.07657492160797119 0.10936032235622405
-0.06688874214887619 0.017079409211874008 0.02439192496240139
0.24191306531429294 0.051886077970266335 0.07410100102424622
-0.0622708648443222 0.13641659915447235 0.19482310116291046
-1.0027509927749634 0.3381219506263733 0.48288819193840027
-2.7854361534118652 0.6847149729728699 0.9778743386268616
-4.600162506103516 1.0124331712722778 1.4459043741226196
-6.434353351593018 1.3040211200714111 1.862335205078125
-8.754919052124023 1.6079282760620117 2.2963595390319824
-11.133174896240234 1.9016112089157107 2.7157821655273438
-12.856167793273926 2.065288782119751 2.949537992477417
-14.035618782043455 2.139627695083618 3.0557050704956055
-14.818147659301758 2.174898147583008 3.10607647895813
-15.414677619934084 2.1660733222961426 3.093473434448242
-15.835030555725098 2.146521806716919 3.0655508041381836
-15.91244411468506 2.0506420135498047 2.9286201000213623
-15.928586959838869 1.967056155204773 2.8092472553253174
-15.944679260253908 1.8781576156616209 2.6822869777679443
-15.538644790649414 1.7557034492492676 2.507404327392578
-15.385396003723143 1.6860712766647339 2.407959461212158
-15.272844314575195 1.6181355714797974 2.3109371662139893
-15.33211612701416 1.5429924726486206 2.2036216259002686
-15.491483688354492 1.5206069946289062 2.171651840209961
-15.754010200500488 1.4574884176254272 2.0815093517303467
-16.08065414428711 1.4185978174209595 2.025967597961426
-16.681896209716797 1.399808406829834 1.999133586883545
-16.951221466064453 1.3629322052001953 1.9464688301086426
-17.402402877807617 1.3198933601379395 1.885003089904785
-18.346487045288086 1.29115629196167 1.84396231174469
-18.61977767944336 1.229522705078125 1.7559404373168945
-18.833364486694336 1.163209080696106 1.6612348556518555
-18.95452117919922 1.090552806854248 1.5574707984924316
-19.197097778320312 0.9958342313766481 1.4221986532211304
-19.03102684020996 0.9518178105354309 1.3593367338180542
-18.804180145263672 0.8855962157249451 1.2647625207901
-18.481853485107422 0.8338931798934937 1.1909228563308716
-17.826881408691406 0.7872350215911865 1.1242880821228027
-17.148759841918945 0.7679897546768188 1.096803069114685
-16.460491180419922 0.7412828207015991 1.0586615800857544
-15.75974655151367 0.7141262292861938 1.0198779106140137
-14.336547851562498 0.6680629253387451 0.9540927410125732
-12.617317199707031 0.662116289138794 0.9456000924110413
-10.668357849121094 0.7141619324684143 1.0199289321899414
-9.007104873657227 0.8120554089546203 1.1597353219985962
-7.398435592651368 0.8731469511985779 1.2469830513000488
-6.0598649978637695 0.8850162029266359 1.2639341354370117
-4.769755840301514 0.8729574084281921 1.246712327003479
-3.3658902645111084 0.8687205910682679 1.24066162109375
-1.9355218410491943 0.8911174535751343 1.2726476192474365