# vtk DataFile Version 4.0
 
ASCII
DATASET UNSTRUCTURED_GRID
POINTS 51 float
0.0032922609243541956 -0.0014886087737977505 0.007336083799600601
0.003229763358831405 -0.004738659597933292 0.009936248883605003
0.003138394095003605 -0.007573751732707024 0.012843918986618519
0.0028620881494134665 -0.010198405012488365 0.015854576602578163
0.0024306110572069883 -0.012645707465708256 0.018935130909085274
0.0019982317462563515 -0.015073084272444248 0.021928157657384872
0.0017444419208914044 -0.01773243397474289 0.02458176016807556
0.001740187988616526 -0.020471736788749695 0.027047954499721527
0.0019156732596457005 -0.02304949052631855 0.029568245634436607
0.00216366327367723 -0.02565540373325348 0.03195292502641678
0.002406609710305929 -0.028219915926456455 0.03427155315876007
0.0025995990727096796 -0.03064991347491741 0.03661724179983139
0.002723678248003125 -0.03300352022051811 0.038931865245103836
0.0027798479422926903 -0.03534284979104996 0.04115331918001175
0.002782244235277176 -0.03766247257590294 0.04328702390193939
0.0027508526109158993 -0.039922378957271576 0.045372992753982544
0.0027057079132646322 -0.04208535701036453 0.04744843393564224
0.0026627120096236467 -0.04414253681898117 0.04952222481369972
0.002631532493978739 -0.04611831158399582 0.05156996473670005
0.002616326557472348 -0.048048235476017 0.05355610325932503
0.002617395017296076 -0.04995569959282875 0.05545724928379059
0.002632583025842905 -0.051841158419847495 0.05727294832468033
0.0026584563311189413 -0.05369007587432861 0.05901773646473885
0.0026912044268101454 -0.05548547580838204 0.06070858612656593
0.0027272577863186598 -0.05721456930041313 0.06235828995704651
0.0027636769227683544 -0.05886976793408394 0.06397444009780884
0.0027983631007373333 -0.06044835969805717 0.0655597373843193
0.0028301344718784094 -0.06195195764303208 0.06711257994174957
0.002858696971088648 -0.06338579952716827 0.06862773001194
0.002884538844227791 -0.0647578164935112 0.07009723782539368
0.002908645896241069 -0.06607685983181 0.07151227444410324
0.0029320986941456795 -0.06735017150640488 0.07286559045314789
0.002955782227218151 -0.06858182698488235 0.0741531178355217
0.002980233170092106 -0.0697721391916275 0.07537452131509781
0.003005585866048932 -0.07091781497001648 0.07653310894966125
0.00303159118629992 -0.0720125213265419 0.07763522118330002
0.0030576810240745544 -0.07304780185222626 0.07868930697441101
0.003083063056692481 -0.07401472330093384 0.07970429211854935
0.0031068241223692894 -0.07490785419940948 0.08068561553955078
0.0031280354596674442 -0.07572852075099945 0.08163195848464966
0.00314584793522954 -0.07648513466119766 0.08253489434719086
0.0031595712061971426 -0.07719148695468903 0.08338063955307007
0.003168734721839428 -0.07786447554826736 0.08415229618549347
0.003173124277964235 -0.07852482050657272 0.08482914417982101
0.003172800177708268 -0.07919793576002121 0.0853857696056366
0.0031680921092629433 -0.07990974932909012 0.08579624444246292
0.0031595753971487284 -0.08067996054887772 0.08604086190462112
0.003148033283650875 -0.08151588588953018 0.08611231297254562
0.003134404309093952 -0.08240856975317001 0.08601956814527512
0.0031197243370115757 -0.08333185315132141 0.08578875660896301
0.003105060663074255 -0.08424459397792816 0.08546102792024612

CELLS 50 150
2 0 1
2 1 2
2 2 3
2 3 4
2 4 5
2 5 6
2 6 7
2 7 8
2 8 9
2 9 10
2 10 11
2 11 12
2 12 13
2 13 14
2 14 15
2 15 16
2 16 17
2 17 18
2 18 19
2 19 20
2 20 21
2 21 22
2 22 23
2 23 24
2 24 25
2 25 26
2 26 27
2 27 28
2 28 29
2 29 30
2 30 31
2 31 32
2 32 33
2 33 34
2 34 35
2 35 36
2 36 37
2 37 38
2 38 39
2 39 40
2 40 41
2 41 42
2 42 43
2 43 44
2 44 45
2 45 46
2 46 47
2 47 48
2 48 49
2 49 50

CELL_TYPES 50
4
4
4
4
4
4
4
4
4
4
4
4
4
4
4
4
4
4
4
4
4
4
4
4
4
4
4
4
4
4
4
4
4
4
4
4
4
4
4
4
4
4
4
4
4
4
4
4
4
4

POINT_DATA 51

SCALARS zone float
LOOKUP_TABLE default
1.0
1.0
1.0
1.0
1.0
1.0
1.0
1.0
1.0
1.0
1.0
1.0
1.0
1.0
1.0
1.0
1.0
1.0
1.0
1.0
1.0
1.0
1.0
1.0
1.0
1.0
1.0
1.0
1.0
1.0
1.0
1.0
1.0
1.0
1.0
1.0
1.0
1.0
1.0
1.0
1.0
1.0
1.0
1.0
1.0
1.0
1.0
1.0
1.0
1.0
1.0

VECTORS normals float
-3.124873182969168e-5 -0.0016250254120677712 0.0013000824255868793
-7.693334191571921e-5 -0.0030425714794546366 0.0027539178263396025
-0.0001838376629166305 -0.00272987294010818 0.0029591636266559362
-0.0003538915771059692 -0.002535977866500616 0.00304560549557209
-0.0004319281433708965 -0.002437339164316654 0.0030367912258952856
-0.0003430845681577921 -0.0025433627888560295 0.0028233148623257875
-0.00012902190792374313 -0.0026993260253220797 0.0025598984211683273
8.561566210119054e-5 -0.0026585287414491177 0.0024932429660111666
0.0002117376570822671 -0.002591833472251892 0.0024524852633476257
0.00024546831264160573 -0.0025852129328995943 0.002351652830839157
0.0002179679140681401 -0.0024972546380013227 0.0023321581538766623
0.00015853419608902186 -0.0023918026126921177 0.002330157207325101
9.012437658384442e-5 -0.0023464683908969164 0.002268038457259536
2.9283044568728656e-5 -0.0023294759448617697 0.0021775781642645597
-1.4497647498501465e-5 -0.0022897643502801657 0.0021098365541547537
-3.826815736829303e-5 -0.0022114417515695095 0.0020807061810046434
-4.407023516250774e-5 -0.002110079163685441 0.002074616029858589
-3.708776057465002e-5 -0.0020164777524769306 0.002060764469206333
-2.319276609341614e-5 -0.0019528502598404884 0.002016938989982009
-7.068673312460305e-6 -0.0019186936551705005 0.0019436427392065523
8.128289664455224e-6 -0.0018964600749313833 0.0018584233475849032
2.053066054941155e-5 -0.0018671872094273567 0.0017802432412281635
2.9310647732927464e-5 -0.001822159392759204 0.0017178180860355499
3.440070213400759e-5 -0.0017622471787035465 0.0016702773282304408
3.623620068538003e-5 -0.0016921450151130557 0.0016329266363754869
3.555265357135795e-5 -0.0016168946167454123 0.0016007240628823638
3.3228800020879135e-5 -0.0015410964842885733 0.0015690692234784365
3.0166916985763237e-5 -0.0014687188668176532 0.001533993985503912
2.720216980378609e-5 -0.0014029296580702066 0.001492330222390592
2.4974500774987977e-5 -0.0013455331791192293 0.001442273729480803
2.3779994080541655e-5 -0.0012961766915395856 0.0013841773616150022
2.3568165488541126e-5 -0.001252480549737811 0.0013204205315560102
2.406723433523439e-5 -0.0012109847739338875 0.0012544633354991674
2.4901799406507052e-5 -0.0011679971357807517 0.0011899980017915368
2.5678929887362756e-5 -0.00112019048538059 0.0011303516803309321
2.604758265078999e-5 -0.0010649915784597397 0.0010780977318063378
2.573603342170827e-5 -0.0010011015692725778 0.0010345346527174115
2.45715600613039e-5 -0.0009300276869907976 0.0009981556795537472
2.2486185116576962e-5 -0.0008568987250328064 0.0009638317278586328
1.951184640347492e-5 -0.0007886397652328014 0.0009246377157978712
1.5767878721817397e-5 -0.0007314818212762475 0.0008743427461013198
1.1443358744145371e-5 -0.0006896703853271902 0.0008087012101896107
6.776487680326682e-6 -0.0006666663684882224 0.000724252313375473
2.0328297978267074e-6 -0.0006667303969152272 0.0006167353130877018
-2.5160579752991907e-6 -0.0006924644694663584 0.0004835483268834651
-6.612403467443073e-6 -0.0007410107064060867 0.00032754914718680084
-1.002946464723209e-5 -0.0008030704921111465 0.00015803641872480512
-1.2585563126776831e-5 -0.0008643037290312349 -1.0649802788975649e-5
-1.4154468772176187e-5 -0.0009079810697585345 -0.00016178005898837
-1.4671891221951226e-5 -0.0009180153138004243 -0.00027926723123528063
-7.331854249059689e-6 -0.0004563728580251336 -0.0001638620742596686

CELL_DATA 50

VECTORS liftinglineloading               float
0.08497662097215652 -0.056703004986047745 -0.06757601350545883
0.018250418826937675 -0.02475873753428459 -0.02950631268322468
0.05105101317167283 -0.04415293410420418 -0.052619416266679764
0.17938299477100372 -0.08799360692501068 -0.10486669838428496
-0.22210763394832614 -0.19542469084262848 -0.2328980714082718
-1.298890471458435 -0.448422908782959 -0.5344096422195435
-3.0312047004699707 -0.8230725526809692 -0.9808996915817261
-4.774529933929443 -1.1812717914581299 -1.4077849388122559
-6.520661354064941 -1.509534478187561 -1.798993229866028
-8.71752643585205 -1.8513797521591187 -2.206388473510742
-10.92556095123291 -2.175748109817505 -2.5929555892944336
-12.5572509765625 -2.3725647926330566 -2.827512741088867
-13.599117279052734 -2.4543051719665527 -2.9249267578125
-14.272404670715332 -2.4899723529815674 -2.967433452606201
-14.712048530578613 -2.4643490314483643 -2.936896800994873
-14.961517333984377 -2.4205386638641357 -2.884685754776001
-15.737208366394043 -2.3273468017578125 -2.7736239433288574
-15.03287410736084 -2.1927967071533203 -2.6132733821868896
-15.151469230651854 -2.1079154014587402 -2.512115716934204
-14.690142631530762 -1.9611209630966187 -2.3371729850769043
-14.519963264465332 -1.8811469078063965 -2.241863489151001
-14.625598907470701 -1.8273930549621582 -2.177802324295044
-14.467621803283691 -1.7165957689285276 -2.0457592010498047
-14.713072776794434 -1.700074553489685 -2.0260698795318604
-15.064702033996584 -1.636638402938843 -1.9504696130752563
-15.397849082946777 -1.5951919555664062 -1.901075839996338
-15.560420989990234 -1.5520623922348022 -1.849676012992859
-16.10651969909668 -1.5355665683746338 -1.8300169706344607
-16.68594741821289 -1.489241123199463 -1.7748085260391233
-17.637189865112305 -1.4629020690917969 -1.74341881275177
-17.99013328552246 -1.3993030786514282 -1.6676244735717773
-18.275081634521484 -1.3273611068725586 -1.5818873643875122
-18.465364456176758 -1.2466832399368286 -1.4857392311096191
-18.83705711364746 -1.136469841003418 -1.3543919324874878
-18.697153091430664 -1.085486650466919 -1.2936326265335083
-18.48711395263672 -1.0085829496383667 -1.2019823789596558
-18.17287826538086 -0.9478499293327332 -1.129603624343872
-17.483837127685547 -0.8953582644462585 -1.0670464038848877
-16.86722183227539 -0.8701071739196777 -1.036953330039978
-16.190082550048828 -0.8386082649230958 -0.9994143843650819
-15.517539978027342 -0.807176947593689 -0.961956024169922
-14.105286598205566 -0.7544121146202087 -0.8990733623504639
-12.411473274230957 -0.7441457509994507 -0.8868383765220642
-10.474045753479004 -0.8009145855903625 -0.9544928073883058
-8.821579933166504 -0.9069197773933411 -1.0808249711990356
-7.206336498260499 -0.9745106101036072 -1.1613764762878418
-5.870261192321777 -0.9862326383590698 -1.1753462553024292
-4.5806074142456055 -0.9711205363273621 -1.1573363542556763
-3.192514181137085 -0.9647195935249329 -1.1497080326080322
-1.8007116317749021 -0.988814949989319 -1.1784237623214722