# vtk DataFile Version 4.0
 
ASCII
DATASET UNSTRUCTURED_GRID
POINTS 51 float
0.0032922609243541956 -0.007336083799600601 -0.0014886087737977505
0.003229763358831405 -0.009936248883605003 -0.004738659597933292
0.003138394095003605 -0.012843918986618519 -0.007573751732707024
0.0028620881494134665 -0.015854576602578163 -0.010198405012488365
0.0024306110572069883 -0.018935130909085274 -0.012645707465708256
0.0019982317462563515 -0.021928157657384872 -0.015073084272444248
0.0017444419208914044 -0.02458176016807556 -0.01773243397474289
0.001740187988616526 -0.027047954499721527 -0.020471736788749695
0.0019156732596457005 -0.029568245634436607 -0.02304949052631855
0.00216366327367723 -0.03195292502641678 -0.02565540373325348
0.002406609710305929 -0.03427155315876007 -0.028219915926456455
0.0025995990727096796 -0.03661724179983139 -0.03064991347491741
0.002723678248003125 -0.038931865245103836 -0.03300352022051811
0.0027798479422926903 -0.04115331918001175 -0.03534284979104996
0.002782244235277176 -0.04328702390193939 -0.03766247257590294
0.0027508526109158993 -0.045372992753982544 -0.039922378957271576
0.0027057079132646322 -0.04744843393564224 -0.04208535701036453
0.0026627120096236467 -0.04952222481369972 -0.04414253681898117
0.002631532493978739 -0.05156996473670005 -0.04611831158399582
0.002616326557472348 -0.05355610325932503 -0.048048235476017
0.002617395017296076 -0.05545724928379059 -0.04995569959282875
0.002632583025842905 -0.05727294832468033 -0.051841158419847495
0.0026584563311189413 -0.05901773646473885 -0.05369007587432861
0.0026912044268101454 -0.06070858612656593 -0.05548547580838204
0.0027272577863186598 -0.06235828995704651 -0.05721456930041313
0.0027636769227683544 -0.06397444009780884 -0.05886976793408394
0.0027983631007373333 -0.0655597373843193 -0.06044835969805717
0.0028301344718784094 -0.06711257994174957 -0.06195195764303208
0.002858696971088648 -0.06862773001194 -0.06338579952716827
0.002884538844227791 -0.07009723782539368 -0.0647578164935112
0.002908645896241069 -0.07151227444410324 -0.06607685983181
0.0029320986941456795 -0.07286559045314789 -0.06735017150640488
0.002955782227218151 -0.0741531178355217 -0.06858182698488235
0.002980233170092106 -0.07537452131509781 -0.0697721391916275
0.003005585866048932 -0.07653310894966125 -0.07091781497001648
0.00303159118629992 -0.07763522118330002 -0.0720125213265419
0.0030576810240745544 -0.07868930697441101 -0.07304780185222626
0.003083063056692481 -0.07970429211854935 -0.07401472330093384
0.0031068241223692894 -0.08068561553955078 -0.07490785419940948
0.0031280354596674442 -0.08163195848464966 -0.07572852075099945
0.00314584793522954 -0.08253489434719086 -0.07648513466119766
0.0031595712061971426 -0.08338063955307007 -0.07719148695468903
0.003168734721839428 -0.08415229618549347 -0.07786447554826736
0.003173124277964235 -0.08482914417982101 -0.07852482050657272
0.003172800177708268 -0.0853857696056366 -0.07919793576002121
0.0031680921092629433 -0.08579624444246292 -0.07990974932909012
0.0031595753971487284 -0.08604086190462112 -0.08067996054887772
0.003148033283650875 -0.08611231297254562 -0.08151588588953018
0.003134404309093952 -0.08601956814527512 -0.08240856975317001
0.0031197243370115757 -0.08578875660896301 -0.08333185315132141
0.003105060663074255 -0.08546102792024612 -0.08424459397792816

CELLS 50 150
2 0 1
2 1 2
2 2 3
2 3 4
2 4 5
2 5 6
2 6 7
2 7 8
2 8 9
2 9 10
2 10 11
2 11 12
2 12 13
2 13 14
2 14 15
2 15 16
2 16 17
2 17 18
2 18 19
2 19 20
2 20 21
2 21 22
2 22 23
2 23 24
2 24 25
2 25 26
2 26 27
2 27 28
2 28 29
2 29 30
2 30 31
2 31 32
2 32 33
2 33 34
2 34 35
2 35 36
2 36 37
2 37 38
2 38 39
2 39 40
2 40 41
2 41 42
2 42 43
2 43 44
2 44 45
2 45 46
2 46 47
2 47 48
2 48 49
2 49 50

CELL_TYPES 50
4
4
4
4
4
4
4
4
4
4
4
4
4
4
4
4
4
4
4
4
4
4
4
4
4
4
4
4
4
4
4
4
4
4
4
4
4
4
4
4
4
4
4
4
4
4
4
4
4
4

POINT_DATA 51

SCALARS zone float
LOOKUP_TABLE default
1.0
1.0
1.0
1.0
1.0
1.0
1.0
1.0
1.0
1.0
1.0
1.0
1.0
1.0
1.0
1.0
1.0
1.0
1.0
1.0
1.0
1.0
1.0
1.0
1.0
1.0
1.0
1.0
1.0
1.0
1.0
1.0
1.0
1.0
1.0
1.0
1.0
1.0
1.0
1.0
1.0
1.0
1.0
1.0
1.0
1.0
1.0
1.0
1.0
1.0
1.0

VECTORS normals float
-3.124873182969168e-5 -0.0013000824255868793 -0.0016250254120677712
-7.693334191571921e-5 -0.0027539178263396025 -0.0030425714794546366
-0.0001838376629166305 -0.0029591636266559362 -0.00272987294010818
-0.0003538915771059692 -0.00304560549557209 -0.002535977866500616
-0.0004319281433708965 -0.0030367912258952856 -0.002437339164316654
-0.0003430845681577921 -0.0028233148623257875 -0.0025433627888560295
-0.00012902190792374313 -0.0025598984211683273 -0.0026993260253220797
8.561566210119054e-5 -0.0024932429660111666 -0.0026585287414491177
0.0002117376570822671 -0.0024524852633476257 -0.002591833472251892
0.00024546831264160573 -0.002351652830839157 -0.0025852129328995943
0.0002179679140681401 -0.0023321581538766623 -0.0024972546380013227
0.00015853419608902186 -0.002330157207325101 -0.0023918026126921177
9.012437658384442e-5 -0.002268038457259536 -0.0023464683908969164
2.9283044568728656e-5 -0.0021775781642645597 -0.0023294759448617697
-1.4497647498501465e-5 -0.0021098365541547537 -0.0022897643502801657
-3.826815736829303e-5 -0.0020807061810046434 -0.0022114417515695095
-4.407023516250774e-5 -0.002074616029858589 -0.002110079163685441
-3.708776057465002e-5 -0.002060764469206333 -0.0020164777524769306
-2.319276609341614e-5 -0.002016938989982009 -0.0019528502598404884
-7.068673312460305e-6 -0.0019436427392065523 -0.0019186936551705005
8.128289664455224e-6 -0.0018584233475849032 -0.0018964600749313833
2.053066054941155e-5 -0.0017802432412281635 -0.0018671872094273567
2.9310647732927464e-5 -0.0017178180860355499 -0.001822159392759204
3.440070213400759e-5 -0.0016702773282304408 -0.0017622471787035465
3.623620068538003e-5 -0.0016329266363754869 -0.0016921450151130557
3.555265357135795e-5 -0.0016007240628823638 -0.0016168946167454123
3.3228800020879135e-5 -0.0015690692234784365 -0.0015410964842885733
3.0166916985763237e-5 -0.001533993985503912 -0.0014687188668176532
2.720216980378609e-5 -0.001492330222390592 -0.0014029296580702066
2.4974500774987977e-5 -0.001442273729480803 -0.0013455331791192293
2.3779994080541655e-5 -0.0013841773616150022 -0.0012961766915395856
2.3568165488541126e-5 -0.0013204205315560102 -0.001252480549737811
2.406723433523439e-5 -0.0012544633354991674 -0.0012109847739338875
2.4901799406507052e-5 -0.0011899980017915368 -0.0011679971357807517
2.5678929887362756e-5 -0.0011303516803309321 -0.00112019048538059
2.604758265078999e-5 -0.0010780977318063378 -0.0010649915784597397
2.573603342170827e-5 -0.0010345346527174115 -0.0010011015692725778
2.45715600613039e-5 -0.0009981556795537472 -0.0009300276869907976
2.2486185116576962e-5 -0.0009638317278586328 -0.0008568987250328064
1.951184640347492e-5 -0.0009246377157978712 -0.0007886397652328014
1.5767878721817397e-5 -0.0008743427461013198 -0.0007314818212762475
1.1443358744145371e-5 -0.0008087012101896107 -0.0006896703853271902
6.776487680326682e-6 -0.000724252313375473 -0.0006666663684882224
2.0328297978267074e-6 -0.0006167353130877018 -0.0006667303969152272
-2.5160579752991907e-6 -0.0004835483268834651 -0.0006924644694663584
-6.612403467443073e-6 -0.00032754914718680084 -0.0007410107064060867
-1.002946464723209e-5 -0.00015803641872480512 -0.0008030704921111465
-1.2585563126776831e-5 1.0649802788975649e-5 -0.0008643037290312349
-1.4154468772176187e-5 0.00016178005898837 -0.0009079810697585345
-1.4671891221951226e-5 0.00027926723123528063 -0.0009180153138004243
-7.331854249059689e-6 0.0001638620742596686 -0.0004563728580251336

CELL_DATA 50

VECTORS liftinglineloading               float
0.160312682390213 0.10324531793594362 -0.0866331085562706
0.26005131006240845 0.18942400813102722 -0.15894562005996704
-0.1261344701051712 0.05577876418828965 -0.04680394008755684
0.13578449189662933 0.06712109595537186 -0.056321285665035255
0.23775687813758853 0.11462471634149553 -0.09618155658245087
-0.6432656645774841 0.37178826332092285 -0.3119674026966095
-2.3959410190582275 0.8499994874000548 -0.7132342457771301
-4.294191360473633 1.3351414203643799 -1.120316743850708
-6.229960918426514 1.7785999774932861 -1.4924225807189941
-8.560076713562012 2.2046432495117188 -1.8499153852462769
-10.922586441040039 2.6026859283447266 -2.183912754058838
-12.704873085021973 2.8441550731658936 -2.3865294456481934
-13.868483543395996 2.942441463470459 -2.469001531600952
-14.630677223205566 2.985156297683716 -2.5048434734344482
-14.99864101409912 2.9499869346618652 -2.4753329753875732
-15.46509075164795 2.9113540649414062 -2.44291615486145
-15.55952262878418 2.7636828422546387 -2.319005250930786
-15.57823848724365 2.6458683013916016 -2.220147132873535
-15.639312744140625 2.532865047454834 -2.125325918197632
-15.213528633117676 2.3609039783477783 -1.9810335636138916
-15.120651245117188 2.268157482147217 -1.903210163116455
-15.188517570495604 2.1891987323760986 -1.8369557857513428
-15.299684524536133 2.081313371658325 -1.746429204940796
-15.632790565490723 2.057295322418213 -1.7262756824493408
-15.91895008087158 1.9732775688171387 -1.6557765007019043
-16.303529739379883 1.9201987981796265 -1.6112381219863892
-16.599658966064453 1.872035264968872 -1.570824146270752
-17.12224769592285 1.841100811958313 -1.544866919517517
-17.586597442626953 1.7815027236938474 -1.4948582649230957
-18.462968826293945 1.7416913509368896 -1.4614524841308594
-18.6791934967041 1.658865690231323 -1.3919535875320435
-18.801048278808594 1.571248173713684 -1.3184337615966797
-18.829605102539062 1.4762505292892456 -1.238721251487732
-18.95905303955078 1.35219144821167 -1.134623408317566
-18.707073211669922 1.2952462434768677 -1.0868406295776367
-18.40062713623047 1.206648349761963 -1.012498140335083
-18.004270553588867 1.1360093355178833 -0.953225076198578
-17.25307273864746 1.0748399496078491 -0.9018977880477905
-16.583276748657227 1.044687271118164 -0.876596689224243
-15.859651565551756 1.0070747137069702 -0.845035970211029
-15.08006954193115 0.9707729816436768 -0.8145752549171448
-13.65383529663086 0.9073898196220397 -0.7613904476165771
-12.00024127960205 0.8883387446403503 -0.7454047203063965
-10.089614868164062 0.9523937702178955 -0.7991532683372498
-8.47252368927002 1.0694421529769897 -0.8973684906959534
-6.8720221519470215 1.1480422019958496 -0.9633218050003053
-5.573148250579834 1.159234881401062 -0.9727135896682739
-4.320479869842529 1.1390129327774048 -0.9557452797889708
-2.9907753467559814 1.1295608282089233 -0.9478140473365784
-1.6718915700912476 1.158044457435608 -0.9717146754264832