# vtk DataFile Version 4.0
 
ASCII
DATASET UNSTRUCTURED_GRID
POINTS 51 float
0.0032922609243541956 0.006384529639035463 0.003907923121005297
0.003229763358831405 0.007716302759945393 0.007851281203329563
0.003138394095003605 0.009478960186243057 0.011509877629578114
0.0028620881494134665 0.011410367675125599 0.015005950815975666
0.0024306110572069883 0.01346811559051275 0.018359273672103882
0.0019982317462563515 0.01545043010264635 0.021663937717676163
0.0017444419208914044 0.01703444868326187 0.025070494040846825
0.001740187988616526 0.018415017053484917 0.028488084673881527
0.0019156732596457005 0.01990167237818241 0.031772371381521225
0.00216366327367723 0.021251263096928596 0.03503673896193504
0.002406609710305929 0.022552944719791412 0.03823960945010185
0.0025995990727096796 0.023926064372062683 0.04132533073425293
0.002723678248003125 0.02529611811041832 0.04432864859700203
0.0027798479422926903 0.026583503931760788 0.04728667810559273
0.002782244235277176 0.02779517136514187 0.05019618198275566
0.0027508526109158993 0.02898240834474564 0.053033240139484406
0.0027057079132646322 0.03019290417432785 0.05577562004327775
0.0026627120096236467 0.03143803030252457 0.05841801315546036
0.002631532493978739 0.03268652409315109 0.060975003987550735
0.002616326557472348 0.033892810344696045 0.063467837870121
0.002617395017296076 0.0350269116461277 0.06591049581766129
0.002632583025842905 0.0360882468521595 0.06830325722694397
0.0026584563311189413 0.03709544241428375 0.07063741981983185
0.0026912044268101454 0.038070257753133774 0.0729028508067131
0.0027272577863186598 0.039029091596603394 0.0750918984413147
0.0027636769227683544 0.0399816632270813 0.0772000327706337
0.0027983631007373333 0.040931444615125656 0.07922562956809998
0.0028301344718784094 0.041876375675201416 0.08116964995861053
0.002858696971088648 0.04280974715948105 0.08303523063659668
0.002884538844227791 0.04372137784957886 0.08482711017131805
0.002908645896241069 0.04459993913769722 0.08655057847499847
0.0029320986941456795 0.04543614387512207 0.08820995688438416
0.002955782227218151 0.046224769204854965 0.08980768918991089
0.002980233170092106 0.046965401619672775 0.0913439691066742
0.003005585866048932 0.04766227677464485 0.09281681478023529
0.00303159118629992 0.04832351207733154 0.09422244876623154
0.0030576810240745544 0.048959940671920776 0.09555580466985703
0.003083063056692481 0.04958300665020943 0.09681156277656555
0.0031068241223692894 0.050199683755636215 0.09798646718263626
0.0031280354596674442 0.05080826580524445 0.09908130764961243
0.00314584793522954 0.05139797180891037 0.10010111331939697
0.0031595712061971426 0.051951128989458084 0.1010541319847107
0.003168734721839428 0.052446071058511734 0.10195045173168182
0.003173124277964235 0.05285625159740447 0.10280247032642365
0.003172800177708268 0.05314908549189568 0.10362537205219267
0.0031680921092629433 0.05329135060310364 0.10443464666604994
0.0031595753971487284 0.0532577931880951 0.10524207353591919
0.003148033283650875 0.053039029240608215 0.10605202615261078
0.003134404309093952 0.05264656245708465 0.10685914754867554
0.0031197243370115757 0.05211388692259788 0.10764780640602112
0.003105060663074255 0.05149374902248383 0.10839342325925828

CELLS 50 150
2 0 1
2 1 2
2 2 3
2 3 4
2 4 5
2 5 6
2 6 7
2 7 8
2 8 9
2 9 10
2 10 11
2 11 12
2 12 13
2 13 14
2 14 15
2 15 16
2 16 17
2 17 18
2 18 19
2 19 20
2 20 21
2 21 22
2 22 23
2 23 24
2 24 25
2 25 26
2 26 27
2 27 28
2 28 29
2 29 30
2 30 31
2 31 32
2 32 33
2 33 34
2 34 35
2 35 36
2 36 37
2 37 38
2 38 39
2 39 40
2 40 41
2 41 42
2 42 43
2 43 44
2 44 45
2 45 46
2 46 47
2 47 48
2 48 49
2 49 50

CELL_TYPES 50
4
4
4
4
4
4
4
4
4
4
4
4
4
4
4
4
4
4
4
4
4
4
4
4
4
4
4
4
4
4
4
4
4
4
4
4
4
4
4
4
4
4
4
4
4
4
4
4
4
4

POINT_DATA 51

SCALARS zone float
LOOKUP_TABLE default
1.0
1.0
1.0
1.0
1.0
1.0
1.0
1.0
1.0
1.0
1.0
1.0
1.0
1.0
1.0
1.0
1.0
1.0
1.0
1.0
1.0
1.0
1.0
1.0
1.0
1.0
1.0
1.0
1.0
1.0
1.0
1.0
1.0
1.0
1.0
1.0
1.0
1.0
1.0
1.0
1.0
1.0
1.0
1.0
1.0
1.0
1.0
1.0
1.0
1.0
1.0

VECTORS normals float
-3.124873182969168e-5 0.0006658864440396428 0.0019716788083314896
-7.693334191571921e-5 0.0015472153900191188 0.0038009774871170525
-0.0001838376629166305 0.001847032574005425 0.0035773350391536955
-0.0003538915771059692 0.001994577469304204 0.003424698254093528
-0.0004319281433708965 0.002020031213760376 0.003328993450850248
-0.0003430845681577921 0.001783166779205203 0.003355609718710184
-0.00012902190792374313 0.0014822938246652484 0.0034120737109333277
8.561566210119054e-5 0.0014336116146296263 0.003350939135998488
0.0002117376570822671 0.00141812302172184 0.0032743262127041817
0.00024546831264160573 0.001325635937973857 0.0032336181029677395
0.0002179679140681401 0.0013374002883210778 0.003144296817481518
0.00015853419608902186 0.0013715868117287755 0.003044520039111376
9.012437658384442e-5 0.0013287195470184088 0.0029806739185005426
2.9283044568728656e-5 0.0012495263945311308 0.0029337669257074594
-1.4497647498501465e-5 0.0011994523229077458 0.0028732814826071262
-3.826815736829303e-5 0.0011988666374236345 0.0027897190302610397
-4.407023516250774e-5 0.0012278116773813963 0.0026923862751573324
-3.708776057465002e-5 0.0012468091445043683 0.002599692204967141
-2.319276609341614e-5 0.0012273886241018772 0.0025249128229916096
-7.068673312460305e-6 0.0011701948242262006 0.002467747312039137
8.128289664455224e-6 0.0010977190686389804 0.0024177078157663345
2.053066054941155e-5 0.0010342658497393131 0.0023634610697627068
2.9310647732927464e-5 0.0009910057997331023 0.002299798186868429
3.440070213400759e-5 0.0009668233105912805 0.0022272393107414246
3.623620068538003e-5 0.0009557013981975615 0.002148590050637722
3.555265357135795e-5 0.000951178022660315 0.0020668639335781336
3.3228800020879135e-5 0.0009473566897213459 0.001984810223802924
3.0166916985763237e-5 0.0009391513885930181 0.0019048011163249612
2.720216980378609e-5 0.0009225014946423471 0.0018287296406924725
2.4974500774987977e-5 0.0008950945339165628 0.001757674268446863
2.3779994080541655e-5 0.0008573827217333018 0.0016914241714403035
2.3568165488541126e-5 0.0008124158484861254 0.0016285571036860347
2.406723433523439e-5 0.0007646288140676916 0.001567005179822445
2.4901799406507052e-5 0.0007187537848949432 0.0015045616310089827
2.5678929887362756e-5 0.0006790554034523666 0.0014392378507182002
2.604758265078999e-5 0.0006488318904303014 0.001369495876133442
2.573603342170827e-5 0.0006297476938925683 0.0012945595663040876
2.45715600613039e-5 0.0006198713090270758 0.0012153295101597905
2.2486185116576962e-5 0.0006126289372332394 0.0011348712723702192
1.951184640347492e-5 0.0005991445505060256 0.001057323650456965
1.5767878721817397e-5 0.0005714319413527846 0.0009864108869805932
1.1443358744145371e-5 0.0005240493919700384 0.0009246703120879829
6.776487680326682e-6 0.000452561245765537 0.0008741703350096941
2.0328297978267074e-6 0.00035150640178471804 0.0008374575409106911
-2.5160579752991907e-6 0.00021754999761469662 0.0008160870056599379
-6.612403467443073e-6 5.435492130345665e-5 0.0008083506836555898
-1.002946464723209e-5 -0.00012616062304005027 0.0008086910238489509
-1.2585563126776831e-5 -0.00030561682069674134 0.0008085374138318002
-1.4154468772176187e-5 -0.0004625713336281478 0.0007978910580277442
-1.4671891221951226e-5 -0.0005764050874859095 0.0007671371567994356
-7.331854249059689e-6 -0.0003100686881225556 0.00037280606920830905

CELL_DATA 50

VECTORS liftinglineloading               float
0.0909675806760788 -0.08541553467512131 0.03108871169388294
0.053507912904024124 -0.07066118717193604 0.0257185697555542
0.001585560035891831 -0.04104252904653549 0.014938258565962315
0.22866956889629364 -0.10639245063066483 0.03872368484735489
-0.14211922883987427 -0.25504234433174133 0.09282781928777695
-1.1138828992843628 -0.5946807265281677 0.21644608676433566
-2.840482473373413 -1.1464409828186035 0.4172704219818115
-4.594882011413574 -1.6770602464675903 0.6104000210762024
-6.36769437789917 -2.163001537322998 0.7872682213783264
-8.596980094909668 -2.6638312339782715 0.9695552587509155
-10.813529014587402 -3.1391382217407227 1.1425528526306152
-12.516249656677246 -3.431941032409668 1.2491244077682495
-13.708444595336916 -3.561100482940674 1.2961345911026
-14.406791687011719 -3.613107442855835 1.3150635957717896
-14.90931797027588 -3.585792303085327 1.305121660232544
-15.252532958984375 -3.5368273258209224 1.2872998714447021
-15.317543983459473 -3.356055974960327 1.2215044498443604
-15.308730125427246 -3.2129085063934326 1.169403076171875
-15.349313735961914 -3.079305648803711 1.120775580406189
-14.879323005676271 -2.8675477504730225 1.0437020063400269
-14.663208961486816 -2.749040365219116 1.0005688667297363
-14.740301132202147 -2.6650772094726562 0.9700087308883667
-14.63504123687744 -2.5122570991516113 0.9143868088722228
-14.859432220458984 -2.4856934547424316 0.9047184586524963
-15.380248069763184 -2.3991596698760986 0.8732227087020875
-15.713781356811523 -2.336920738220215 0.8505696058273315
-15.937794685363768 -2.276704788208008 0.8286527395248413
-16.44684410095215 -2.24765944480896 0.8180810809135437
-16.82124137878418 -2.176452398300171 0.7921639084815979
-17.69505500793457 -2.1369435787200928 0.7777838110923767
-17.91668701171875 -2.043943405151367 0.7439345121383667
-18.114843368530273 -1.942216753959656 0.7069090604782104
-18.21306610107422 -1.8293163776397705 0.6658167243003845
-18.363353729248047 -1.6788541078567505 0.611052930355072
-18.173046112060547 -1.6078393459320068 0.5852056741714478
-17.914342880249023 -1.496341347694397 0.5446237325668335
-17.553442001342773 -1.4063867330551147 0.5118829011917114
-16.8721866607666 -1.3293039798736572 0.48382708430290217
-16.231727600097656 -1.2897824048995972 0.46944242715835566
-15.523774147033691 -1.2422633171081543 0.45214688777923584
-14.879360198974608 -1.1958941221237183 0.43526986241340637
-13.474511146545408 -1.1174205541610718 0.40670782327651983
-11.853299140930176 -1.0906932353973389 0.3969798684120178
-9.964661598205566 -1.1677275896072388 0.42501807212829584
-8.3656005859375 -1.3073616027832031 0.4758407175540924
-6.772988796234131 -1.4029674530029297 0.510638415813446
-5.486802577972412 -1.4154729843139648 0.515190064907074
-4.245369911193848 -1.3895372152328491 0.5057501792907715
-2.9330480098724365 -1.3768516778945923 0.5011330246925354
-1.6350210905075073 -1.4113160371780396 0.5136770606040955