# vtk DataFile Version 4.0
 
ASCII
DATASET UNSTRUCTURED_GRID
POINTS 51 float
0.0032922609243541956 0.004957214929163456 -0.005608930718153715
0.003229763358831405 0.009071923792362213 -0.006235714070498943
0.003138394095003605 0.012981020845472813 -0.007336284499615431
0.0028620881494134665 0.016759365797042847 -0.008631262928247452
0.0024306110572069883 0.02041906863451004 -0.01007544994354248
0.0019982317462563515 0.024017753079533577 -0.011453799903392792
0.0017444419208914044 0.027647618204355236 -0.012422212399542332
0.001740187988616526 0.03125302121043205 -0.013188348151743414
0.0019156732596457005 0.03474556654691696 -0.01408210676163435
0.00216366327367723 0.0381946936249733 -0.014844343997538088
0.002406609710305929 0.04157494008541107 -0.015570076182484627
0.0025995990727096796 0.04485222324728966 -0.016386505216360092
0.002723678248003125 0.04804782196879387 -0.017214223742485046
0.0027798479422926903 0.05118446424603463 -0.017968395724892616
0.002782244235277176 0.054260171949863434 -0.018656423315405846
0.0027508526109158993 0.057260289788246155 -0.019332975149154663
0.0027057079132646322 0.060171205550432205 -0.020048871636390686
0.0026627120096236467 0.06298966705799103 -0.02081623673439026
0.002631532493978739 0.06572461128234863 -0.021601742133498192
0.002616326557472348 0.06838904321193695 -0.022356826812028885
0.002617395017296076 0.07099153101444244 -0.02304953709244728
0.002632583025842905 0.07353223115205765 -0.023679250851273537
0.0026584563311189413 0.07600583881139755 -0.024265820160508156
0.0026912044268101454 0.07840612530708313 -0.024832438677549362
0.0027272577863186598 0.08072841912508011 -0.025396579876542088
0.0027636769227683544 0.08296993374824524 -0.02596860565245152
0.0027983631007373333 0.08512968569993973 -0.0265522189438343
0.0028301344718784094 0.08720825612545013 -0.02714521624147892
0.002858696971088648 0.08920757472515106 -0.027740456163883213
0.002884538844227791 0.09113053232431412 -0.028327079489827156
0.002908645896241069 0.09298037737607956 -0.028893014416098598
0.0029320986941456795 0.0947597548365593 -0.02942836843430996
0.002955782227218151 0.09647016227245331 -0.029927568510174755
0.002980233170092106 0.09811170399188995 -0.030390176922082904
0.003005585866048932 0.09968318790197372 -0.03082070872187614
0.00303159118629992 0.10118228197097778 -0.031227814033627507
0.0030576810240745544 0.102605901658535 -0.03162303939461708
0.003083063056692481 0.10395077615976334 -0.03201857954263687
0.0031068241223692894 0.1052149161696434 -0.03242186829447746
0.0031280354596674442 0.106398805975914 -0.03283108398318291
0.00314584793522954 0.10750551521778107 -0.033234745264053345
0.0031595712061971426 0.1085401102900505 -0.033614009618759155
0.003168734721839428 0.10950876027345657 -0.03394578769803047
0.003173124277964235 0.11041905730962752 -0.034201785922050476
0.003172800177708268 0.11128030717372893 -0.03434727340936661
0.0031680921092629433 0.1121019944548607 -0.03434685245156288
0.0031595753971487284 0.11289132386445999 -0.034173596650362015
0.003148033283650875 0.11365098506212233 -0.033817507326602936
0.003134404309093952 0.11437769234180449 -0.03329084441065788
0.0031197243370115757 0.11506187915802002 -0.03262931481003761
0.003105060663074255 0.11568847298622131 -0.03188912570476532

CELLS 50 150
2 0 1
2 1 2
2 2 3
2 3 4
2 4 5
2 5 6
2 6 7
2 7 8
2 8 9
2 9 10
2 10 11
2 11 12
2 12 13
2 13 14
2 14 15
2 15 16
2 16 17
2 17 18
2 18 19
2 19 20
2 20 21
2 21 22
2 22 23
2 23 24
2 24 25
2 25 26
2 26 27
2 27 28
2 28 29
2 29 30
2 30 31
2 31 32
2 32 33
2 33 34
2 34 35
2 35 36
2 36 37
2 37 38
2 38 39
2 39 40
2 40 41
2 41 42
2 42 43
2 43 44
2 44 45
2 45 46
2 46 47
2 47 48
2 48 49
2 49 50

CELL_TYPES 50
4
4
4
4
4
4
4
4
4
4
4
4
4
4
4
4
4
4
4
4
4
4
4
4
4
4
4
4
4
4
4
4
4
4
4
4
4
4
4
4
4
4
4
4
4
4
4
4
4
4

POINT_DATA 51

SCALARS zone float
LOOKUP_TABLE default
1.0
1.0
1.0
1.0
1.0
1.0
1.0
1.0
1.0
1.0
1.0
1.0
1.0
1.0
1.0
1.0
1.0
1.0
1.0
1.0
1.0
1.0
1.0
1.0
1.0
1.0
1.0
1.0
1.0
1.0
1.0
1.0
1.0
1.0
1.0
1.0
1.0
1.0
1.0
1.0
1.0
1.0
1.0
1.0
1.0
1.0
1.0
1.0
1.0
1.0
1.0

VECTORS normals float
-3.124873182969168e-5 0.0020573546644300222 -0.00031339170527644455
-7.693334191571921e-5 0.004011902958154678 -0.0008636769489385188
-0.0001838376629166305 0.003843721002340317 -0.0011977743124589324
-0.0003538915771059692 0.003719024127349258 -0.0013695828383788466
-0.0004319281433708965 0.0036291934084147215 -0.0014112688368186355
-0.0003430845681577921 0.003614274086430669 -0.001173380995169282
-0.00012902190792374313 0.0036176342982798815 -0.0008672740659676492
8.561566210119054e-5 0.003548974869772792 -0.0008299474138766527
0.0002117376570822671 0.003470836207270622 -0.000827997748274356
0.00024546831264160573 0.0034146865364164114 -0.0007439846522174776
0.0002179679140681401 0.0033287650439888243 -0.000771080784033984
0.00015853419608902186 0.0032364404760301113 -0.0008220740128308535
9.012437658384442e-5 0.0031661204993724823 -0.0007909447303973138
2.9283044568728656e-5 0.0031061742920428514 -0.0007211000192910433
-1.4497647498501465e-5 0.0030379125382751226 -0.0006822898867540061
-3.826815736829303e-5 0.002955517964437604 -0.0006962235784158111
-4.407023516250774e-5 0.002864690264686942 -0.0007416305015794933
-3.708776057465002e-5 0.002776703331619501 -0.0007764354231767356
-2.319276609341614e-5 0.0026996873784810305 -0.0007702953880652785
-7.068673312460305e-6 0.0026334587018936872 -0.000723897130228579
8.128289664455224e-6 0.002571594202890992 -0.0006612117285840213
2.053066054941155e-5 0.0025071531999856234 -0.0006081422907300293
2.9310647732927464e-5 0.0024369454476982355 -0.000576594437006861
3.440070213400759e-5 0.002361289458349347 -0.000565379043109715
3.623620068538003e-5 0.002281903987750411 -0.0005680834292434156
3.555265357135795e-5 0.002200633753091097 -0.0005778204067610204
3.3228800020879135e-5 0.0021191632840782404 -0.000588305527344346
3.0166916985763237e-5 0.0020389447454363108 -0.0005941183189861476
2.720216980378609e-5 0.001961137866601348 -0.0005909311003051698
2.4974500774987977e-5 0.0018864028388634324 -0.0005762790679000318
2.3779994080541655e-5 0.001814610557630658 -0.0005506444140337408
2.3568165488541126e-5 0.0017448902362957597 -0.0005172774544917047
2.406723433523439e-5 0.00167597527615726 -0.00048090479685924947
2.4901799406507052e-5 0.00160651421174407 -0.00044656993122771377
2.5678929887362756e-5 0.0015352893387898803 -0.00041881797369569545
2.604758265078999e-5 0.001461358624510467 -0.0004011642595287412
2.573603342170827e-5 0.001384246745146811 -0.000395382521674037
2.45715600613039e-5 0.00130450539290905 -0.0003994143335148692
2.2486185116576962e-5 0.0012240118812769651 -0.0004062533844262361
1.951184640347492e-5 0.0011453009210526943 -0.0004064398526679724
1.5767878721817397e-5 0.001070653204806149 -0.0003914621192961931
1.1443358744145371e-5 0.0010016226442530751 -0.0003555205767042935
6.776487680326682e-6 0.0009394761291332544 -0.000293887744192034
2.0328297978267074e-6 0.0008857731008902192 -0.0002007432631216943
-2.5160579752991907e-6 0.0008414659532718359 -7.253290095832199e-5
-6.612403467443073e-6 0.0008055086364038288 8.683947817189619e-5
-1.002946464723209e-5 0.0007744976319372654 0.00026467168936505914
-1.2585563126776831e-5 0.0007431841222569346 0.0004413748683873564
-1.4154468772176187e-5 0.0007054446614347398 0.0005940962000750005
-1.4671891221951226e-5 0.0006553909624926746 0.0007008601678535342
-7.331854249059689e-6 0.0003132994461338967 0.0003700951347127557

CELL_DATA 50

VECTORS liftinglineloading               float
0.08653095364570618 0.015431500971317291 0.08751638978719711
0.028740882873535156 0.008569953963160515 0.048602622002363205
0.034581493586301804 0.010283613577485085 0.0583212673664093
0.20302532613277435 0.022119930014014244 0.12544836103916168
-0.18605636060237885 0.05036371201276779 0.2856267988681793
-1.1977272033691406 0.11526631563901901 0.65370774269104
-2.9139039516448975 0.2163892537355423 1.227204442024231
-4.643956184387207 0.3135492503643036 1.7782262563705442
-6.387033939361572 0.4032069742679596 2.286700487136841
-8.573447227478027 0.49550992250442505 2.810176372528076
-10.782355308532715 0.583001971244812 3.3063683509826665
-12.441471099853516 0.6370640993118286 3.612970113754273
-13.513705253601074 0.6596946716308594 3.741314172744751
-14.2228479385376 0.6698712706565857 3.799028873443603
-14.698014259338379 0.6636049151420593 3.763490676879883
-14.986557960510256 0.6526443958282471 3.701330184936524
-15.021982192993162 0.6172263026237488 3.5004644393920894
-14.981293678283693 0.5900744199752808 3.346478223800659
-15.013346672058104 0.5662177801132202 3.2111806869506836
-14.511695861816406 0.5262583494186401 2.9845595359802246
-14.343924522399904 0.5049437880516052 2.863678455352783
-14.507228851318361 0.4916681945323944 2.788388967514038
-14.395776748657227 0.4621354937553406 2.6209006309509277
-14.716158866882326 0.4585565626621247 2.6006035804748535
-15.139322280883789 0.44203040003776556 2.5068790912628174
-15.537385940551758 0.4311182498931885 2.444993019104004
-15.789649009704588 0.4200536012649536 2.382242202758789
-16.39373779296875 0.4152235090732574 2.3548495769500732
-17.81467628479004 0.4042700529098511 2.292729377746582
-18.736793518066406 0.3945368230342865 2.2375295162200928
-18.97986602783203 0.37484773993492126 2.1258671283721924
-19.172401428222656 0.3539487421512604 2.007343053817749
-19.27852439880371 0.3312256932258606 1.8784743547439575
-19.52606201171875 0.30187904834747314 1.7120411396026611
-19.352527618408203 0.2881913185119629 1.6344140768051147
-19.175901412963867 0.26754069328308105 1.5172985792160034
-18.821619033813477 0.2521180510520935 1.4298324584960938
-18.060903549194336 0.23856523633003235 1.3529707193374634
-17.35994529724121 0.23262578248977664 1.3192863464355469
-16.676109313964844 0.22448983788490298 1.2731451988220215
-15.96757984161377 0.2162068784236908 1.2261701822280884
-14.538328170776365 0.20225445926189423 1.1470420360565186
-12.800339698791504 0.20094379782676697 1.1396089792251587
-10.837006568908691 0.21695183217525485 1.230394959449768
-9.16060733795166 0.24720138311386108 1.4019486904144287
-7.631841659545898 0.2663787305355072 1.5107088088989258
-6.2474141120910645 0.2699427604675293 1.530921459197998
-4.916341304779053 0.26613324880599976 1.5093165636062622
-3.3678841590881343 0.2634273171424866 1.493970513343811
-1.933157801628113 0.2701760530471802 1.5322445631027222