# vtk DataFile Version 4.0
 
ASCII
DATASET UNSTRUCTURED_GRID
POINTS 51 float
0.0032922609243541956 0.0004608325252775103 0.007471393328160047
0.003229763358831405 -0.0020055032800883055 0.010824134573340416
0.003138394095003605 -0.0039914315566420555 0.014366504736244677
0.0028620881494134665 -0.005747437011450529 0.017953885719180107
0.0024306110572069883 -0.007314043119549751 0.021562881767749786
0.0019982317462563515 -0.008884056471288204 0.0250821765512228
0.0017444419208914044 -0.010765987448394299 0.028333649039268494
0.001740187988616526 -0.01277365256100893 0.03142479434609413
0.0019156732596457005 -0.01461127307265997 0.03452637791633606
0.00216366327367723 -0.016511190682649612 0.03750426322221756
0.002406609710305929 -0.018388215452432632 0.04040762782096863
0.0025995990727096796 -0.02012830227613449 0.04330231994390488
0.002723678248003125 -0.021802645176649094 0.04614723473787308
0.0027798479422926903 -0.023487308993935585 0.04889845475554466
0.002782244235277176 -0.02517564967274666 0.05155981704592705
0.0027508526109158993 -0.02681866101920605 0.054159615188837044
0.0027057079132646322 -0.02837077528238296 0.0567241609096527
0.0026627120096236467 -0.029821122065186497 0.05925972387194633
0.002631532493978739 -0.031199580058455467 0.06174905598163605
0.002616326557472348 -0.032549694180488586 0.06416702270507812
0.002617395017296076 -0.03390010818839073 0.0664970725774765
0.002632583025842905 -0.03525138273835182 0.0687389001250267
0.0026584563311189413 -0.03658571466803551 0.07090277224779129
0.0026912044268101454 -0.03788231685757637 0.07300069183111191
0.0027272577863186598 -0.03912551701068878 0.07504170387983322
0.0027636769227683544 -0.04030602425336838 0.07703118026256561
0.0027983631007373333 -0.04142052307724953 0.0789710283279419
0.0028301344718784094 -0.042470984160900116 0.08086011558771133
0.002858696971088648 -0.0434638150036335 0.08269474655389786
0.002884538844227791 -0.04440874978899956 0.08446928858757019
0.002908645896241069 -0.04531661048531532 0.08617750555276871
0.0029320986941456795 -0.04619626700878143 0.08781426399946213
0.002955782227218151 -0.047052714973688126 0.08937668800354004
0.002980233170092106 -0.047886352986097336 0.09086455404758453
0.003005585866048932 -0.04869312420487404 0.09228018671274185
0.00303159118629992 -0.049465280026197433 0.09362807869911194
0.0030576810240745544 -0.050192467868328094 0.09491419792175293
0.003083063056692481 -0.05086374655365943 0.09614485502243042
0.0031068241223692894 -0.051472458988428116 0.09732390195131302
0.0031280354596674442 -0.05202023312449455 0.09845039993524551
0.00314584793522954 -0.0525173656642437 0.09951839596033096
0.0031595712061971426 -0.052980754524469376 0.10051814466714859
0.003168734721839428 -0.053431093692779534 0.10143768787384032
0.003173124277964235 -0.05389375239610673 0.10226237773895264
0.003172800177708268 -0.05439987033605575 0.10297425091266632
0.0031680921092629433 -0.054981186985969537 0.10355497151613235
0.0031595753971487284 -0.05566184222698212 0.1039905995130539
0.003148033283650875 -0.056450795382261276 0.10427597165107728
0.003134404309093952 -0.05733706057071686 0.10441742837429045
0.0031197243370115757 -0.05828862264752388 0.10443344712257385
0.003105060663074255 -0.05925508961081505 0.1043531224131584

CELLS 50 150
2 0 1
2 1 2
2 2 3
2 3 4
2 4 5
2 5 6
2 6 7
2 7 8
2 8 9
2 9 10
2 10 11
2 11 12
2 12 13
2 13 14
2 14 15
2 15 16
2 16 17
2 17 18
2 18 19
2 19 20
2 20 21
2 21 22
2 22 23
2 23 24
2 24 25
2 25 26
2 26 27
2 27 28
2 28 29
2 29 30
2 30 31
2 31 32
2 32 33
2 33 34
2 34 35
2 35 36
2 36 37
2 37 38
2 38 39
2 39 40
2 40 41
2 41 42
2 42 43
2 43 44
2 44 45
2 45 46
2 46 47
2 47 48
2 48 49
2 49 50

CELL_TYPES 50
4
4
4
4
4
4
4
4
4
4
4
4
4
4
4
4
4
4
4
4
4
4
4
4
4
4
4
4
4
4
4
4
4
4
4
4
4
4
4
4
4
4
4
4
4
4
4
4
4
4

POINT_DATA 51

SCALARS zone float
LOOKUP_TABLE default
1.0
1.0
1.0
1.0
1.0
1.0
1.0
1.0
1.0
1.0
1.0
1.0
1.0
1.0
1.0
1.0
1.0
1.0
1.0
1.0
1.0
1.0
1.0
1.0
1.0
1.0
1.0
1.0
1.0
1.0
1.0
1.0
1.0
1.0
1.0
1.0
1.0
1.0
1.0
1.0
1.0
1.0
1.0
1.0
1.0
1.0
1.0
1.0
1.0
1.0
1.0

VECTORS normals float
-3.124873182969168e-5 -0.0012331679463386536 0.001676370739005506
-7.693334191571921e-5 -0.0022261322010308504 0.003447555704042316
-0.0001838376629166305 -0.001870966865681112 0.003564875572919845
-0.0003538915771059692 -0.0016613058978691697 0.0035981885157525535
-0.0004319281433708965 -0.001568309497088194 0.0035641449503600597
-0.0003430845681577921 -0.0017259721644222734 0.0033853834029287104
-0.00012902190792374313 -0.0019447982776910067 0.003171309130266309
8.561566210119054e-5 -0.0019226428121328354 0.0030963656026870012
0.0002117376570822671 -0.0018687690608203411 0.003039734670892358
0.00024546831264160573 -0.0018884714227169752 0.002940624486654997
0.0002179679140681401 -0.001808555913157761 0.0028990288265049458
0.00015853419608902186 -0.0017072148621082306 0.002869803225621581
9.012437658384442e-5 -0.00167950289323926 0.0027980676386505365
2.9283044568728656e-5 -0.0016865022480487823 0.0027062916196882725
-1.4497647498501465e-5 -0.0016656767111271618 0.002630580449476838
-3.826815736829303e-5 -0.001597562455572188 0.0025821712333709
-4.407023516250774e-5 -0.0015012299409136176 0.0025500538758933544
-3.708776057465002e-5 -0.0014144029701128602 0.0025124484673142433
-2.319276609341614e-5 -0.0013642861740663648 0.0024536484852433205
-7.068673312460305e-6 -0.0013502640649676323 0.0023740092292428017
8.128289664455224e-6 -0.0013508443953469396 0.0022859391756355762
2.053066054941155e-5 -0.0013428034726530313 0.0022028465755283833
2.9310647732927464e-5 -0.0013154667103663087 0.0021308944560587406
3.440070213400759e-5 -0.0012699004728347063 0.0020694672130048275
3.623620068538003e-5 -0.0012118540471419692 0.0020152453798800707
3.555265357135795e-5 -0.0011475024512037635 0.001964663853868842
3.3228800020879135e-5 -0.0010824799537658691 0.0019144696416333318
3.0166916985763237e-5 -0.001021646661683917 0.001861856784671545
2.720216980378609e-5 -0.0009688824648037552 0.001804585219360888
2.4974500774987977e-5 -0.0009263973333872856 0.0017413790337741373
2.3779994080541655e-5 -0.0008937590173445642 0.0016724878223612902
2.3568165488541126e-5 -0.0008680532919242978 0.0015995941357687116
2.406723433523439e-5 -0.0008450424065813423 0.0015251444419845939
2.4901799406507052e-5 -0.0008202044409699739 0.0014517497038468719
2.5678929887362756e-5 -0.0007894644513726234 0.001381762558594346
2.604758265078999e-5 -0.0007496706093661487 0.0013170025777071714
2.573603342170827e-5 -0.0006992326234467328 0.001258387928828597
2.45715600613039e-5 -0.0006399960839189589 0.0012048531789332628
2.2486185116576962e-5 -0.0005782425869256258 0.0011527716415002942
1.951184640347492e-5 -0.0005224536871537566 0.001097246422432363
1.5767878721817397e-5 -0.0004802606126759201 0.0010338716674596071
1.1443358744145371e-5 -0.0004568631702568382 0.0009596452000550926
6.776487680326682e-6 -0.0004564999544527382 0.0008721199701540172
2.0328297978267074e-6 -0.00048438925296068186 0.000768283091019839
-2.5160579752991907e-6 -0.000543717760592699 0.0006462947931140661
-6.612403467443073e-6 -0.0006309854215942323 0.0005081758718006313
-1.002946464723209e-5 -0.0007348036742769182 0.00036050137714482844
-1.2585563126776831e-5 -0.0008376096957363188 0.00021341134561225775
-1.4154468772176187e-5 -0.0009189140982925892 7.873524737078696e-5
-1.4671891221951226e-5 -0.0009590143454261123 -3.2151598134078085e-5
-7.331854249059689e-6 -0.0004832329577766359 -4.0160615753848106e-5

CELL_DATA 50

VECTORS liftinglineloading               float
0.086868517100811 -0.07382803410291672 -0.05169494450092316
0.020162630826234818 -0.03337883576750755 -0.023372111842036247
0.051825426518917084 -0.05694614350795745 -0.039874117821455
0.17301121354103088 -0.1149516925215721 -0.08049004524946213
-0.2422156035900116 -0.25577232241630554 -0.17909370362758636
-1.3835049867630005 -0.5940678119659424 -0.41597074270248413
-3.142582893371582 -1.074210524559021 -0.7521703243255615
-4.921142101287842 -1.5313516855239868 -1.0722639560699463
-6.699934482574462 -1.9451669454574583 -1.3620206117630005
-8.950287818908691 -2.3835201263427734 -1.668958783149719
-11.211392402648926 -2.8022682666778564 -1.9621694087982178
-12.83812427520752 -3.045659303665161 -2.1325936317443848
-13.873040199279783 -3.147568941116333 -2.203951358795166
-14.698897361755373 -3.1998538970947266 -2.2405617237091064
-15.237104415893555 -3.1750075817108154 -2.2231643199920654
-15.592186927795412 -3.1312508583068848 -2.1925253868103027
-15.620147705078127 -2.96929931640625 -2.0791258811950684
-15.538692474365234 -2.836064338684082 -1.9858336448669431
-15.47092628479004 -2.7094414234161377 -1.8971713781356814
-14.858437538146973 -2.5132572650909424 -1.7598016262054443
-14.546348571777344 -2.40236759185791 -1.6821558475494387
-14.553729057312012 -2.330113649368286 -1.6315631866455076
-14.267922401428223 -2.179352045059204 -1.5259987115859985
-14.441728591918945 -2.156613349914551 -1.510076880455017
-14.968788146972654 -2.084949016571045 -1.4598970413208008
-15.34593200683594 -2.0339484214782715 -1.424186110496521
-15.527421951293945 -1.9793714284896853 -1.3859708309173584
-16.084808349609375 -1.9590911865234375 -1.3717703819274902
-16.5163516998291 -1.8979836702346802 -1.3289824724197388
-17.52240562438965 -1.8663078546524048 -1.306802749633789
-17.915870666503906 -1.7864457368850708 -1.2508827447891235
-18.23248863220215 -1.6949045658111572 -1.1867849826812744
-18.4449462890625 -1.5917993783950806 -1.1145899295806885
-18.724241256713867 -1.4550509452819824 -1.018837571144104
-18.630573272705078 -1.3887134790420532 -0.9723876118659973
-18.457361221313477 -1.2893937826156616 -0.9028432369232179
-18.1704044342041 -1.2108746767044067 -0.8478635549545288
-17.50567054748535 -1.1431827545166016 -0.8004651665687561
-17.464033126831055 -1.104683756828308 -0.7735078930854797
-16.76060676574707 -1.0660520792007446 -0.7464576959609985
-16.030344009399414 -1.0267616510391235 -0.7189462184906006
-14.573171615600586 -0.9605205059051514 -0.6725637316703796
-12.81338882446289 -0.9533598423004149 -0.667549729347229
-10.818973541259766 -1.028451919555664 -0.7201297879219055
-9.118454933166504 -1.1697163581848145 -0.8190442323684693
-7.4720659255981445 -1.2566606998443604 -0.8799232840538025
-6.095806121826172 -1.2724595069885254 -0.8909857273101807
-4.76836633682251 -1.2533953189849854 -0.8776368498802184
-3.331971406936645 -1.2451623678207397 -0.8718721270561218
-1.8856670856475832 -1.2751919031143188 -0.8928989768028259