# vtk DataFile Version 4.0
 
ASCII
DATASET UNSTRUCTURED_GRID
POINTS 51 float
0.0032922609243541956 -0.0027398911770433187 0.006966138258576393
0.003229763358831405 -0.006392080336809158 0.008962434716522694
0.003138394095003605 -0.009689012542366982 0.011333622969686985
0.0028620881494134665 -0.012796587310731411 0.013842774555087088
0.0024306110572069883 -0.01574164256453514 0.016451559960842133
0.0019982317462563515 -0.018651874735951424 0.018977606669068336
0.0017444419208914044 -0.02173161506652832 0.021129103377461433
0.001740187988616526 -0.024857552722096443 0.023082155734300613
0.0019156732596457005 -0.027833789587020877 0.025116536766290665
0.00216366327367723 -0.030814208090305325 0.02701247483491898
0.002406609710305929 -0.03374238684773445 0.028850553557276726
0.0025995990727096796 -0.03654278814792633 0.030738642439246178
0.002723678248003125 -0.039262570440769196 0.032609403133392334
0.0027798479422926903 -0.04195211082696915 0.0343908853828907
0.002782244235277176 -0.0446070097386837 0.036089375615119934
0.0027508526109158993 -0.04719480499625206 0.037751227617263794
0.0027057079132646322 -0.04968532174825668 0.03941953927278519
0.0026627120096236467 -0.052071355283260345 0.041104599833488464
0.002631532493978739 -0.05437270179390907 0.0427781380712986
0.002616326557472348 -0.05661819502711296 0.04439897462725639
0.002617395017296076 -0.05882681161165238 0.045940011739730835
0.002632583025842905 -0.06099891662597656 0.04740072041749954
0.0026584563311189413 -0.06312272697687149 0.04879793897271156
0.0026912044268101454 -0.06518445909023285 0.05015133321285248
0.0027272577863186598 -0.06717375665903091 0.05147572234272957
0.0027636769227683544 -0.06908445060253143 0.05277989432215691
0.0027983631007373333 -0.07091434299945831 0.05406699329614639
0.0028301344718784094 -0.07266474515199661 0.05533514171838761
0.002858696971088648 -0.07433990389108658 0.05657828971743584
0.002884538844227791 -0.07594625651836395 0.05778722465038299
0.002908645896241069 -0.07749098539352417 0.058951713144779205
0.0029320986941456795 -0.07897994667291641 0.06006336584687233
0.002955782227218151 -0.08041646331548691 0.06111745536327362
0.002980233170092106 -0.08180079609155655 0.06211360543966293
0.003005585866048932 -0.08313025534152985 0.06305564939975739
0.00303159118629992 -0.08439970761537552 0.06395092606544495
0.0030576810240745544 -0.0856022983789444 0.06480921804904938
0.003083063056692481 -0.08673077821731567 0.0656408816576004
0.0031068241223692894 -0.08778075128793716 0.06645221263170242
0.0031280354596674442 -0.08875327557325363 0.06724166125059128
0.00314584793522954 -0.08965519070625305 0.06799949705600739
0.0031595712061971426 -0.09049767255783081 0.06870973855257034
0.003168734721839428 -0.09129443019628525 0.06935280561447144
0.003173124277964235 -0.09206227958202362 0.06990470737218857
0.003172800177708268 -0.09282182902097702 0.0703359842300415
0.0031680921092629433 -0.09359410405158997 0.07061662524938583
0.0031595753971487284 -0.09439508616924286 0.07072377949953079
0.003148033283650875 -0.09523072838783264 0.07064899057149887
0.003134404309093952 -0.09609373658895493 0.07040263712406158
0.0031197243370115757 -0.09696291387081146 0.07001500576734543
0.003105060663074255 -0.09780488163232803 0.06953376531600952

CELLS 50 150
2 0 1
2 1 2
2 2 3
2 3 4
2 4 5
2 5 6
2 6 7
2 7 8
2 8 9
2 9 10
2 10 11
2 11 12
2 12 13
2 13 14
2 14 15
2 15 16
2 16 17
2 17 18
2 18 19
2 19 20
2 20 21
2 21 22
2 22 23
2 23 24
2 24 25
2 25 26
2 26 27
2 27 28
2 28 29
2 29 30
2 30 31
2 31 32
2 32 33
2 33 34
2 34 35
2 35 36
2 36 37
2 37 38
2 38 39
2 39 40
2 40 41
2 41 42
2 42 43
2 43 44
2 44 45
2 45 46
2 46 47
2 47 48
2 48 49
2 49 50

CELL_TYPES 50
4
4
4
4
4
4
4
4
4
4
4
4
4
4
4
4
4
4
4
4
4
4
4
4
4
4
4
4
4
4
4
4
4
4
4
4
4
4
4
4
4
4
4
4
4
4
4
4
4
4

POINT_DATA 51

SCALARS zone float
LOOKUP_TABLE default
1.0
1.0
1.0
1.0
1.0
1.0
1.0
1.0
1.0
1.0
1.0
1.0
1.0
1.0
1.0
1.0
1.0
1.0
1.0
1.0
1.0
1.0
1.0
1.0
1.0
1.0
1.0
1.0
1.0
1.0
1.0
1.0
1.0
1.0
1.0
1.0
1.0
1.0
1.0
1.0
1.0
1.0
1.0
1.0
1.0
1.0
1.0
1.0
1.0
1.0
1.0

VECTORS normals float
-3.124873182969168e-5 -0.0018260945798829198 0.0009981485782191157
-7.693334191571921e-5 -0.003474560799077153 0.0021837425883859396
-0.0001838376629166305 -0.0032022532541304827 0.0024401696864515543
-0.0003538915771059692 -0.0030263145454227924 0.0025589680299162865
-0.0004319281433708965 -0.00292764394544065 0.0025674160569906235
-0.0003430845681577921 -0.0029949869494885206 0.002338771941140294
-0.00012902190792374313 -0.0031028389930725098 0.002052274765446782
8.561566210119054e-5 -0.0030510867945849895 0.0019937162287533283
0.0002117376570822671 -0.0029783272184431553 0.0019651593174785376
0.00024546831264160573 -0.0029542979318648577 0.0018670085119083522
0.0002179679140681401 -0.002864290727302432 0.001863083685748279
0.00015853419608902186 -0.0027600934263318777 0.0018794246716424825
9.012437658384442e-5 -0.0027046611066907644 0.0018261219374835491
2.9283044568728656e-5 -0.0026722184848040342 0.0017399865901097655
-1.4497647498501465e-5 -0.0026213470846414566 0.0016801700694486499
-3.826815736829303e-5 -0.0025391560047864914 0.001665082760155201
-4.407023516250774e-5 -0.00243827560916543 0.0016766864573583005
-3.708776057465002e-5 -0.0023436909541487694 0.0016792990500107405
-2.319276609341614e-5 -0.0022734198719263077 0.0016471883282065392
-7.068673312460305e-6 -0.0022270544432103634 0.001580936717800796
8.128289664455224e-6 -0.0021903603337705135 0.0015008728951215744
2.053066054941155e-5 -0.00214795651845634 0.001428963732905686
2.9310647732927464e-5 -0.0020927726291120052 0.0013753059320151806
3.440070213400759e-5 -0.0020255153067409992 0.0013388911029323936
3.623620068538003e-5 -0.0019499922636896372 0.0013142809038981795
3.555265357135795e-5 -0.0018702931702136993 0.0012956346618011594
3.3228800020879135e-5 -0.0017901498358696701 0.001277622883208096
3.0166916985763237e-5 -0.00171278091147542 0.0012556487927213311
2.720216980378609e-5 -0.001640756381675601 0.0012260421644896269
2.4974500774987977e-5 -0.0015755397034808993 0.0011867129942402244
2.3779994080541655e-5 -0.0015168447280302644 0.001138069899752736
2.3568165488541126e-5 -0.0014627411728724837 0.0010828693630173802
2.406723433523439e-5 -0.0014104223810136318 0.0010251199128106236
2.4901799406507052e-5 -0.0013568936847150326 0.0009690987062640488
2.5678929887362756e-5 -0.0012994558783248067 0.0009186600218527019
2.604758265078999e-5 -0.0012360216351225972 0.0008767851395532489
2.573603342170827e-5 -0.0011655377456918359 0.0008449783199466765
2.45715600613039e-5 -0.0010892264544963837 0.0008214938570745288
2.2486185116576962e-5 -0.0010112480958923697 0.0008003900293260813
1.951184640347492e-5 -0.0009372202330268921 0.0007736445404589176
1.5767878721817397e-5 -0.0008721969788894057 0.0007340390584431589
1.1443358744145371e-5 -0.0008196222479455172 0.0006766552105545998
6.776487680326682e-6 -0.0007823032792657614 0.0005974838859401643
2.0328297978267074e-6 -0.000763696210924536 0.0004915891913697124
-2.5160579752991907e-6 -0.0007659116527065635 0.0003559569304343313
-6.612403467443073e-6 -0.0007866313681006432 0.00019389776571188122
-1.002946464723209e-5 -0.000818312750197947 1.6183759726118296e-5
-1.2585563126776831e-5 -0.0008493236964568496 -0.00016057277389336377
-1.4154468772176187e-5 -0.0008660939638502896 -0.0003169915289618075
-1.4671891221951226e-5 -0.0008555743261240422 -0.00043443622416816646
-7.331854249059689e-6 -0.0004209851904306561 -0.00024062095326371494

CELL_DATA 50

VECTORS liftinglineloading               float
0.11056531220674515 -0.0507916659116745 -0.08797374367713928
0.12516309320926666 -0.06869793683290482 -0.11898831278085709
-0.07001650333404541 -0.015043004415929317 -0.026055248454213142
0.24231001734733584 -0.04504433274269104 -0.07801907509565353
-0.06117436662316322 -0.11910095065832138 -0.20628888905048368
-1.0275497436523438 -0.2987808287143707 -0.517503559589386
-2.7744979858398438 -0.5950648784637451 -1.0306825637817383
-4.562515735626221 -0.8779652714729308 -1.5206804275512695
-6.473179817199707 -1.140860676765442 -1.9760286808013916
-8.808391571044922 -1.4063633680343628 -2.4358928203582764
-11.201536178588867 -1.6629592180252075 -2.8803298473358154
-12.929976463317871 -1.8048716783523562 -3.126129388809204
-14.113460540771486 -1.8693488836288452 -3.237807273864746
-14.97091579437256 -1.9000358581542969 -3.290958642959595
-15.491550445556639 -1.8912189006805418 -3.2756872177124023
-15.921538352966309 -1.8747929334640503 -3.247236490249634
-16.00448989868164 -1.792119860649109 -3.1040425300598145
-16.029958724975586 -1.7195289134979246 -2.978311538696289
-16.05210304260254 -1.6412712335586548 -2.8427650928497314
-15.628397941589355 -1.5340653657913208 -2.6570792198181152
-15.495628356933594 -1.4737677574157715 -2.552640676498413
-15.3503999710083 -1.4138214588165283 -2.448810577392578
-15.394725799560547 -1.3474738597869873 -2.333893060684204
-15.588189125061035 -1.3282359838485718 -2.300572156906128
-15.85246276855469 -1.272750735282898 -2.2044689655303955
-16.195552825927734 -1.2386939525604248 -2.1454808712005615
-16.748655319213867 -1.221246361732483 -2.1152608394622803
-17.03798484802246 -1.1890983581542969 -2.0595788955688477
-17.492401123046875 -1.1513652801513672 -1.9942232370376587
-18.417346954345703 -1.1257349252700806 -1.9498300552368164
-18.675987243652344 -1.0716177225112915 -1.8560962677001953
-18.87873077392578 -1.0136438608169556 -1.7556827068328857
-18.991504669189453 -0.9502362012863159 -1.645857334136963
-19.252302169799805 -0.8672434687614441 -1.5021097660064697
-19.083723068237305 -0.8288669586181641 -1.4356396198272705
-18.853055953979492 -0.7712795734405518 -1.3358954191207886
-18.5260066986084 -0.72641521692276 -1.258188009262085
-17.802173614501953 -0.6871906518936157 -1.1902490854263306
-17.18053436279297 -0.6692847609519958 -1.1592351198196411
-16.50632095336914 -0.6458720564842224 -1.1186832189559937
-15.813704490661623 -0.6221062541007996 -1.0775196552276611
-14.397080421447754 -0.5819448232650757 -1.007957935333252
-12.677958488464355 -0.5772982239723206 -0.9999098181724548
-10.781868934631348 -0.6233504414558411 -1.0796747207641602
-9.11139965057373 -0.7099812030792236 -1.229723572731018
-7.499870777130127 -0.7634235620498657 -1.3222883939743042
-6.15431022644043 -0.774060070514679 -1.3407113552093506
-4.858026504516602 -0.763716459274292 -1.3227957487106323
-3.442793846130371 -0.7601196765899658 -1.316565990447998
-1.9946916103363035 -0.7795462012290955 -1.350213646888733