# vtk DataFile Version 4.0
 
ASCII
DATASET UNSTRUCTURED_GRID
POINTS 51 float
0.0032922609243541956 0.003907923121005297 -0.006384529639035463
0.003229763358831405 0.007851281203329563 -0.007716302759945393
0.003138394095003605 0.011509877629578114 -0.009478960186243057
0.0028620881494134665 0.015005950815975666 -0.011410367675125599
0.0024306110572069883 0.018359273672103882 -0.01346811559051275
0.0019982317462563515 0.021663937717676163 -0.01545043010264635
0.0017444419208914044 0.025070494040846825 -0.01703444868326187
0.001740187988616526 0.028488084673881527 -0.018415017053484917
0.0019156732596457005 0.031772371381521225 -0.01990167237818241
0.00216366327367723 0.03503673896193504 -0.021251263096928596
0.002406609710305929 0.03823960945010185 -0.022552944719791412
0.0025995990727096796 0.04132533073425293 -0.023926064372062683
0.002723678248003125 0.04432864859700203 -0.02529611811041832
0.0027798479422926903 0.04728667810559273 -0.026583503931760788
0.002782244235277176 0.05019618198275566 -0.02779517136514187
0.0027508526109158993 0.053033240139484406 -0.02898240834474564
0.0027057079132646322 0.05577562004327775 -0.03019290417432785
0.0026627120096236467 0.05841801315546036 -0.03143803030252457
0.002631532493978739 0.060975003987550735 -0.03268652409315109
0.002616326557472348 0.063467837870121 -0.033892810344696045
0.002617395017296076 0.06591049581766129 -0.0350269116461277
0.002632583025842905 0.06830325722694397 -0.0360882468521595
0.0026584563311189413 0.07063741981983185 -0.03709544241428375
0.0026912044268101454 0.0729028508067131 -0.038070257753133774
0.0027272577863186598 0.0750918984413147 -0.039029091596603394
0.0027636769227683544 0.0772000327706337 -0.0399816632270813
0.0027983631007373333 0.07922562956809998 -0.040931444615125656
0.0028301344718784094 0.08116964995861053 -0.041876375675201416
0.002858696971088648 0.08303523063659668 -0.04280974715948105
0.002884538844227791 0.08482711017131805 -0.04372137784957886
0.002908645896241069 0.08655057847499847 -0.04459993913769722
0.0029320986941456795 0.08820995688438416 -0.04543614387512207
0.002955782227218151 0.08980768918991089 -0.046224769204854965
0.002980233170092106 0.0913439691066742 -0.046965401619672775
0.003005585866048932 0.09281681478023529 -0.04766227677464485
0.00303159118629992 0.09422244876623154 -0.04832351207733154
0.0030576810240745544 0.09555580466985703 -0.048959940671920776
0.003083063056692481 0.09681156277656555 -0.04958300665020943
0.0031068241223692894 0.09798646718263626 -0.050199683755636215
0.0031280354596674442 0.09908130764961243 -0.05080826580524445
0.00314584793522954 0.10010111331939697 -0.05139797180891037
0.0031595712061971426 0.1010541319847107 -0.051951128989458084
0.003168734721839428 0.10195045173168182 -0.052446071058511734
0.003173124277964235 0.10280247032642365 -0.05285625159740447
0.003172800177708268 0.10362537205219267 -0.05314908549189568
0.0031680921092629433 0.10443464666604994 -0.05329135060310364
0.0031595753971487284 0.10524207353591919 -0.0532577931880951
0.003148033283650875 0.10605202615261078 -0.053039029240608215
0.003134404309093952 0.10685914754867554 -0.05264656245708465
0.0031197243370115757 0.10764780640602112 -0.05211388692259788
0.003105060663074255 0.10839342325925828 -0.05149374902248383

CELLS 50 150
2 0 1
2 1 2
2 2 3
2 3 4
2 4 5
2 5 6
2 6 7
2 7 8
2 8 9
2 9 10
2 10 11
2 11 12
2 12 13
2 13 14
2 14 15
2 15 16
2 16 17
2 17 18
2 18 19
2 19 20
2 20 21
2 21 22
2 22 23
2 23 24
2 24 25
2 25 26
2 26 27
2 27 28
2 28 29
2 29 30
2 30 31
2 31 32
2 32 33
2 33 34
2 34 35
2 35 36
2 36 37
2 37 38
2 38 39
2 39 40
2 40 41
2 41 42
2 42 43
2 43 44
2 44 45
2 45 46
2 46 47
2 47 48
2 48 49
2 49 50

CELL_TYPES 50
4
4
4
4
4
4
4
4
4
4
4
4
4
4
4
4
4
4
4
4
4
4
4
4
4
4
4
4
4
4
4
4
4
4
4
4
4
4
4
4
4
4
4
4
4
4
4
4
4
4

POINT_DATA 51

SCALARS zone float
LOOKUP_TABLE default
1.0
1.0
1.0
1.0
1.0
1.0
1.0
1.0
1.0
1.0
1.0
1.0
1.0
1.0
1.0
1.0
1.0
1.0
1.0
1.0
1.0
1.0
1.0
1.0
1.0
1.0
1.0
1.0
1.0
1.0
1.0
1.0
1.0
1.0
1.0
1.0
1.0
1.0
1.0
1.0
1.0
1.0
1.0
1.0
1.0
1.0
1.0
1.0
1.0
1.0
1.0

VECTORS normals float
-3.124873182969168e-5 0.0019716788083314896 -0.0006658864440396428
-7.693334191571921e-5 0.0038009774871170525 -0.0015472153900191188
-0.0001838376629166305 0.0035773350391536955 -0.001847032574005425
-0.0003538915771059692 0.003424698254093528 -0.001994577469304204
-0.0004319281433708965 0.003328993450850248 -0.002020031213760376
-0.0003430845681577921 0.003355609718710184 -0.001783166779205203
-0.00012902190792374313 0.0034120737109333277 -0.0014822938246652484
8.561566210119054e-5 0.003350939135998488 -0.0014336116146296263
0.0002117376570822671 0.0032743262127041817 -0.00141812302172184
0.00024546831264160573 0.0032336181029677395 -0.001325635937973857
0.0002179679140681401 0.003144296817481518 -0.0013374002883210778
0.00015853419608902186 0.003044520039111376 -0.0013715868117287755
9.012437658384442e-5 0.0029806739185005426 -0.0013287195470184088
2.9283044568728656e-5 0.0029337669257074594 -0.0012495263945311308
-1.4497647498501465e-5 0.0028732814826071262 -0.0011994523229077458
-3.826815736829303e-5 0.0027897190302610397 -0.0011988666374236345
-4.407023516250774e-5 0.0026923862751573324 -0.0012278116773813963
-3.708776057465002e-5 0.002599692204967141 -0.0012468091445043683
-2.319276609341614e-5 0.0025249128229916096 -0.0012273886241018772
-7.068673312460305e-6 0.002467747312039137 -0.0011701948242262006
8.128289664455224e-6 0.0024177078157663345 -0.0010977190686389804
2.053066054941155e-5 0.0023634610697627068 -0.0010342658497393131
2.9310647732927464e-5 0.002299798186868429 -0.0009910057997331023
3.440070213400759e-5 0.0022272393107414246 -0.0009668233105912805
3.623620068538003e-5 0.002148590050637722 -0.0009557013981975615
3.555265357135795e-5 0.0020668639335781336 -0.000951178022660315
3.3228800020879135e-5 0.001984810223802924 -0.0009473566897213459
3.0166916985763237e-5 0.0019048011163249612 -0.0009391513885930181
2.720216980378609e-5 0.0018287296406924725 -0.0009225014946423471
2.4974500774987977e-5 0.001757674268446863 -0.0008950945339165628
2.3779994080541655e-5 0.0016914241714403035 -0.0008573827217333018
2.3568165488541126e-5 0.0016285571036860347 -0.0008124158484861254
2.406723433523439e-5 0.001567005179822445 -0.0007646288140676916
2.4901799406507052e-5 0.0015045616310089827 -0.0007187537848949432
2.5678929887362756e-5 0.0014392378507182002 -0.0006790554034523666
2.604758265078999e-5 0.001369495876133442 -0.0006488318904303014
2.573603342170827e-5 0.0012945595663040876 -0.0006297476938925683
2.45715600613039e-5 0.0012153295101597905 -0.0006198713090270758
2.2486185116576962e-5 0.0011348712723702192 -0.0006126289372332394
1.951184640347492e-5 0.001057323650456965 -0.0005991445505060256
1.5767878721817397e-5 0.0009864108869805932 -0.0005714319413527846
1.1443358744145371e-5 0.0009246703120879829 -0.0005240493919700384
6.776487680326682e-6 0.0008741703350096941 -0.000452561245765537
2.0328297978267074e-6 0.0008374575409106911 -0.00035150640178471804
-2.5160579752991907e-6 0.0008160870056599379 -0.00021754999761469662
-6.612403467443073e-6 0.0008083506836555898 -5.435492130345665e-5
-1.002946464723209e-5 0.0008086910238489509 0.00012616062304005027
-1.2585563126776831e-5 0.0008085374138318002 0.00030561682069674134
-1.4154468772176187e-5 0.0007978910580277442 0.0004625713336281478
-1.4671891221951226e-5 0.0007671371567994356 0.0005764050874859095
-7.331854249059689e-6 0.00037280606920830905 0.0003100686881225556

CELL_DATA 50

VECTORS liftinglineloading               float
0.08154351264238358 0.02954540215432644 0.08117532730102539
0.0043768626637756824 0.008622433990240097 0.023689940571784973
0.06800837069749832 0.0271195974200964 0.07451047748327255
0.15057781338691711 0.04994453862309456 0.13722150027751923
-0.25347501039505005 0.10775166004896165 0.2960452437400818
-1.3836134672164917 0.24764025211334229 0.6803860068321228
-3.1132025718688965 0.44530773162841797 1.2234729528427124
-4.863015651702881 0.6345078349113464 1.7432959079742432
-6.614737987518311 0.8070570826530457 2.2173712253570557
-8.831831932067871 0.9889918565750123 2.7172327041625977
-11.06422233581543 1.1624635457992554 3.1938424110412598
-12.695746421813965 1.265303134918213 3.4763917922973633
-13.747207641601564 1.3083897829055786 3.5947713851928715
-14.42300510406494 1.327294945716858 3.6467127799987797
-14.861221313476562 1.3140546083450317 3.610335350036621
-15.119383811950684 1.2917530536651611 3.5490622520446777
-15.113107681274414 1.2206207513809204 3.353628158569336
-15.028179168701172 1.1652779579162598 3.2015750408172607
-15.013573646545408 1.1166304349899292 3.0679168701171875
-14.460463523864744 1.036207675933838 2.846957206726074
-14.239394187927248 0.9927111864089966 2.7274515628814697
-14.384253501892088 0.9672123789787292 2.6573941707611084
-14.18980884552002 0.9058412313461303 2.4887783527374268
-14.472997665405273 0.8987390995025635 2.4692652225494385
-14.873777389526367 0.8668246269226074 2.3815810680389404
-15.226119995117188 0.8453351259231566 2.3225390911102295
-15.38944339752197 0.8224329948425292 2.2596161365509033
-15.93702983856201 0.8142958879470825 2.23725962638855
-16.352031707763672 0.7888790369033813 2.1674273014068604
-17.302953720092773 0.7761505246162415 2.132456064224243
-17.67639923095703 0.743757963180542 2.0434582233428955
-19.070741653442383 0.6962417960166931 1.9129085540771487
-19.175485610961914 0.6518176198005676 1.790854215621948
-19.414892196655273 0.5943713784217834 1.6330219507217407
-19.23676300048828 0.5676172971725464 1.5595158338546753
-19.00065040588379 0.5278642773628235 1.4502952098846436
-18.670900344848633 0.4969912469387055 1.3654721975326538
-17.937938690185547 0.4699918329715728 1.2912919521331787
-17.314361572265625 0.45773521065711975 1.2576172351837158
-16.703636169433594 0.4413501918315887 1.2125996351242065
-15.978846549987795 0.42521557211875916 1.1682701110839844
-14.538468360900877 0.39788609743118286 1.093183159828186
-12.792346000671387 0.3954073190689087 1.08637273311615
-10.82486343383789 0.42690676450729376 1.1729166507720947
-9.147403717041016 0.4863893687725067 1.336343765258789
-7.531116485595703 0.522930920124054 1.4367409944534302
-6.1807332038879395 0.5301984548568726 1.456708312034607
-4.880685806274414 0.5231002569198608 1.4372061491012573
-3.4611341953277583 0.5206221342086792 1.430397629737854
-2.007859706878662 0.5338842272758484 1.4668349027633667