# vtk DataFile Version 4.0
 
ASCII
DATASET UNSTRUCTURED_GRID
POINTS 51 float
0.0032922609243541956 0.0017512252088636158 0.007277863100171089
0.003229763358831405 -9.544403292238712e-5 0.011007944121956825
0.003138394095003605 -0.0014360754285007715 0.014841349795460701
0.0028620881494134665 -0.002542461035773158 0.01867915876209736
0.0024306110572069883 -0.003458571620285511 0.022505363449454308
0.0019982317462563515 -0.004393612965941429 0.02624382078647614
0.0017444419208914044 -0.005682341754436493 0.029772691428661346
0.001740187988616526 -0.007122734095901251 0.03316550329327583
0.0019156732596457005 -0.008393852040171623 0.03653906658291817
0.00216366327367723 -0.009747801348567009 0.03980162739753723
0.002406609710305929 -0.01109214685857296 0.04298682510852814
0.0025995990727096796 -0.012303139083087444 0.046139705926179886
0.002723678248003125 -0.013458031229674816 0.04923214390873909
0.0027798479422926903 -0.01463935524225235 0.05223410576581955
0.002782244235277176 -0.01583990640938282 0.055148214101791375
0.0027508526109158993 -0.017006507143378258 0.0579938217997551
0.0027057079132646322 -0.018089711666107178 0.060788925737142556
0.0026627120096236467 -0.019077729433774948 0.06353782117366791
0.002631532493978739 -0.020002977922558784 0.0662287026643753
0.002616326557472348 -0.02091270498931408 0.06884437799453735
0.002617395017296076 -0.0218379944562912 0.07137352973222733
0.002632583025842905 -0.022779449820518494 0.07381594181060791
0.0026584563311189413 -0.023717761039733887 0.076178640127182
0.0026912044268101454 -0.024630362167954445 0.07846984267234802
0.0027272577863186598 -0.025500256568193436 0.0806957259774208
0.0027636769227683544 -0.026317361742258072 0.08285997062921524
0.0027983631007373333 -0.02707807533442974 0.08496388047933578
0.0028301344718784094 -0.027784543111920357 0.08700668066740036
0.002858696971088648 -0.0284437108784914 0.08898583799600601
0.002884538844227791 -0.029066143557429314 0.09089750796556473
0.002908645896241069 -0.029663581401109692 0.09273742139339447
0.0029320986941456795 -0.03024565614759922 0.09450206905603409
0.002955782227218151 -0.030817780643701553 0.0961894765496254
0.002980233170092106 -0.03138038516044617 0.09779949486255646
0.003005585866048932 -0.031929079443216324 0.09933371841907501
0.00303159118629992 -0.0324554480612278 0.100795216858387
0.0030576810240745544 -0.03294825181365013 0.10218806564807893
0.003083063056692481 -0.03339563310146332 0.1035165935754776
0.0031068241223692894 -0.033790357410907745 0.10478343069553374
0.0031280354596674442 -0.03413419425487518 0.10598793625831603
0.00314584793522954 -0.03443831950426102 0.10712603479623796
0.0031595712061971426 -0.03472106531262398 0.10819105803966524
0.003168734721839428 -0.035004884004592896 0.10917483270168304
0.003173124277964235 -0.0353173092007637 0.11006733775138855
0.003172800177708268 -0.03569212183356285 0.11085627973079681
0.0031680921092629433 -0.03616376966238022 0.11152911931276321
0.0031595753971487284 -0.036758434027433395 0.1120763272047043
0.003148033283650875 -0.03748584911227226 0.1124943643808365
0.003134404309093952 -0.038334086537361145 0.11278756707906722
0.0031197243370115757 -0.039268411695957184 0.1129685789346695
0.003105060663074255 -0.04023414105176926 0.11305730044841766

CELLS 50 150
2 0 1
2 1 2
2 2 3
2 3 4
2 4 5
2 5 6
2 6 7
2 7 8
2 8 9
2 9 10
2 10 11
2 11 12
2 12 13
2 13 14
2 14 15
2 15 16
2 16 17
2 17 18
2 18 19
2 19 20
2 20 21
2 21 22
2 22 23
2 23 24
2 24 25
2 25 26
2 26 27
2 27 28
2 28 29
2 29 30
2 30 31
2 31 32
2 32 33
2 33 34
2 34 35
2 35 36
2 36 37
2 37 38
2 38 39
2 39 40
2 40 41
2 41 42
2 42 43
2 43 44
2 44 45
2 45 46
2 46 47
2 47 48
2 48 49
2 49 50

CELL_TYPES 50
4
4
4
4
4
4
4
4
4
4
4
4
4
4
4
4
4
4
4
4
4
4
4
4
4
4
4
4
4
4
4
4
4
4
4
4
4
4
4
4
4
4
4
4
4
4
4
4
4
4

POINT_DATA 51

SCALARS zone float
LOOKUP_TABLE default
1.0
1.0
1.0
1.0
1.0
1.0
1.0
1.0
1.0
1.0
1.0
1.0
1.0
1.0
1.0
1.0
1.0
1.0
1.0
1.0
1.0
1.0
1.0
1.0
1.0
1.0
1.0
1.0
1.0
1.0
1.0
1.0
1.0
1.0
1.0
1.0
1.0
1.0
1.0
1.0
1.0
1.0
1.0
1.0
1.0
1.0
1.0
1.0
1.0
1.0
1.0

VECTORS normals float
-3.124873182969168e-5 -0.0009233346208930017 0.0018650402780622244
-7.693334191571921e-5 -0.0015936503186821938 0.0037817433476448055
-0.0001838376629166305 -0.0012235085014253855 0.0038356070872396226
-0.0003538915771059692 -0.001011247979477048 0.003832006594166159
-0.0004319281433708965 -0.0009255760814994573 0.0037823317106813192
-0.0003430845681577921 -0.001111885067075491 0.003633663756772876
-0.00012902190792374313 -0.001364560448564589 0.003460840554907918
8.561566210119054e-5 -0.001355755259282887 0.0033831882756203417
0.0002117376570822671 -0.0013125338591635227 0.0033180627506226306
0.00024546831264160573 -0.0013491471763700247 0.0032238794956356283
0.0002179679140681401 -0.0012776687508448958 0.0031690385658293962
0.00015853419608902186 -0.0011829424183815718 0.0031226591672748327
9.012437658384442e-5 -0.0011681080795824528 0.0030472013168036938
2.9283044568728656e-5 -0.0011909378226846457 0.002958035096526146
-1.4497647498501465e-5 -0.0011835758341476321 0.002879857551306486
-3.826815736829303e-5 -0.001124902511946857 0.002820356050506234
-4.407023516250774e-5 -0.0010356106795370579 0.0027719985228031874
-3.708776057465002e-5 -0.0009566328371874989 0.002719887299463153
-2.319276609341614e-5 -0.0009174880688078701 0.002653277711942792
-7.068673312460305e-6 -0.0009175081504508852 0.00257241353392601
8.128289664455224e-6 -0.0009333729394711555 0.002485782140865922
2.053066054941155e-5 -0.0009398830006830394 0.002402555663138628
2.9310647732927464e-5 -0.0009254559408873321 0.002326949732378125
3.440070213400759e-5 -0.0008912486373446881 0.0022585431579500437
3.623620068538003e-5 -0.0008434996125288307 0.0021950656082481146
3.555265357135795e-5 -0.0007889089756645262 0.00213407794944942
3.3228800020879135e-5 -0.0007335905102081597 0.0020733552519232035
3.0166916985763237e-5 -0.0006828174809925258 0.0020109780598431826
2.720216980378609e-5 -0.0006408000481314957 0.001945414231158793
2.4974500774987977e-5 -0.0006099360180087388 0.0018757907673716547
2.3779994080541655e-5 -0.0005897563532926142 0.001802278566174209
2.3568165488541126e-5 -0.0005770990392193198 0.001726028509438038
2.406723433523439e-5 -0.0005673657287843525 0.0016487141838297248
2.4901799406507052e-5 -0.0005556500400416553 0.001572121400386095
2.5678929887362756e-5 -0.0005375301698222756 0.0014978594845160842
2.604758265078999e-5 -0.0005095863598398864 0.0014271732652559876
2.573603342170827e-5 -0.00047009295667521656 0.0013606906868517399
2.45715600613039e-5 -0.00042105253669433296 0.0012976829893887043
2.2486185116576962e-5 -0.00036928110057488084 0.001235669245943427
1.951184640347492e-5 -0.0003239815996494144 0.0011712999548763037
1.5767878721817397e-5 -0.0002934344229288399 0.0011015612399205565
1.1443358744145371e-5 -0.00028328175540082157 0.0010243995347991586
6.776487680326682e-6 -0.00029812264256179333 0.0009381409035995603
2.0328297978267074e-6 -0.0003436193510424346 0.0008407244458794594
-2.5160579752991907e-6 -0.00042322956142015755 0.0007308917120099068
-6.612403467443073e-6 -0.0005331555148586631 0.0006100249593146145
-1.002946464723209e-5 -0.0006610399577766657 0.0004826218646485358
-1.2585563126776831e-5 -0.0007878260221332312 0.00035561854019761086
-1.4154468772176187e-5 -0.0008912815246731043 0.00023710684035904703
-1.4671891221951226e-5 -0.000950027839280665 0.00013486795069184154
-7.331854249059689e-6 -0.00048286537639796734 4.436203380464576e-5

CELL_DATA 50

VECTORS liftinglineloading               float
0.08126368373632431 -0.07929477840662003 -0.036975760012865067
0.017355358228087425 -0.034399233758449554 -0.016040625050663948
0.055795006453990936 -0.06525526940822601 -0.03042902983725071
0.1663466840982437 -0.12937547266483307 -0.06032877042889594
-0.2511981725692749 -0.28603753447532654 -0.13338148593902588
-1.411670207977295 -0.6653389930725098 -0.31025266647338867
-3.170783758163452 -1.1953096389770508 -0.5573820471763611
-4.953592300415039 -1.7001925706863403 -0.7928128242492676
-6.737825393676758 -2.156411647796631 -1.0055512189865112
-8.999881744384766 -2.6420278549194336 -1.2319978475570679
-11.277624130249023 -3.1070339679718018 -1.448833703994751
-12.713753700256348 -3.3650593757629395 -1.5691529512405396
-13.787230491638184 -3.4815213680267334 -1.6234600543975832
-14.48781681060791 -3.533422470092774 -1.6476619243621826
-14.953281402587889 -3.499941349029541 -1.6320494413375854
-15.247376441955568 -3.4435656070709224 -1.6057610511779785
-15.403828620910645 -3.2696282863616943 -1.5246527194976807
-15.385227203369142 -3.1270129680633545 -1.458150029182434
-15.399028778076174 -2.994558572769165 -1.3963855504989624
-14.860311508178713 -2.782200336456299 -1.2973612546920776
-14.520675659179688 -2.658726692199707 -1.239784598350525
-14.694457054138184 -2.5864877700805664 -1.206099033355713
-14.592985153198242 -2.4333269596099854 -1.1346789598464966
-14.870743751525879 -2.410640001296997 -1.1240999698638916
-15.23456859588623 -2.3199996948242188 -1.0818336009979248
-15.577695846557615 -2.2606992721557617 -1.0541813373565674
-15.756700515747072 -2.200049638748169 -1.0259000062942505
-16.297273635864258 -2.1746864318847656 -1.0140728950500488
-16.723957061767578 -2.1061289310455322 -0.9821040630340575
-17.69300651550293 -2.0690107345581055 -0.9647955894470215
-18.07190704345703 -1.9786466360092165 -0.9226580858230591
-18.86593246459961 -1.869641661643982 -0.871828258037567
-18.949722290039062 -1.7539513111114502 -0.817880928516388
-19.14529800415039 -1.6029852628707886 -0.7474842667579651
-18.95140266418457 -1.5320676565170288 -0.7144148349761963
-18.697004318237305 -1.4247459173202515 -0.6643699407577515
-18.34553337097168 -1.3401278257369995 -0.624911904335022
-17.618392944335938 -1.2666082382202148 -0.5906291007995605
-16.974300384521484 -1.2314969301223755 -0.574256420135498
-16.273653030395508 -1.1872271299362183 -0.5536131262779236
-15.579809188842772 -1.1429024934768677 -0.5329442024230957
-14.146762847900389 -1.0682979822158813 -0.49815553426742554
-12.43929672241211 -1.0534104108810425 -0.49121335148811335
-10.481847763061523 -1.1332653760910034 -0.5284503698348999
-8.815840721130371 -1.2819682359695435 -0.5977916121482849
-7.361681938171387 -1.3841642141342163 -0.6454463601112366
-6.008404731750488 -1.401696801185608 -0.6536219716072083
-4.704807281494141 -1.381212592124939 -0.6440699696540833
-3.2951302528381348 -1.3731026649475098 -0.6402882933616638
-1.8722658157348633 -1.407680869102478 -0.6564123630523682