# vtk DataFile Version 4.0
 
ASCII
DATASET UNSTRUCTURED_GRID
POINTS 51 float
0.0032922609243541956 0.007277863100171089 -0.0017512252088636158
0.003229763358831405 0.011007944121956825 9.544403292238712e-5
0.003138394095003605 0.014841349795460701 0.0014360754285007715
0.0028620881494134665 0.01867915876209736 0.002542461035773158
0.0024306110572069883 0.022505363449454308 0.003458571620285511
0.0019982317462563515 0.02624382078647614 0.004393612965941429
0.0017444419208914044 0.029772691428661346 0.005682341754436493
0.001740187988616526 0.03316550329327583 0.007122734095901251
0.0019156732596457005 0.03653906658291817 0.008393852040171623
0.00216366327367723 0.03980162739753723 0.009747801348567009
0.002406609710305929 0.04298682510852814 0.01109214685857296
0.0025995990727096796 0.046139705926179886 0.012303139083087444
0.002723678248003125 0.04923214390873909 0.013458031229674816
0.0027798479422926903 0.05223410576581955 0.01463935524225235
0.002782244235277176 0.055148214101791375 0.01583990640938282
0.0027508526109158993 0.0579938217997551 0.017006507143378258
0.0027057079132646322 0.060788925737142556 0.018089711666107178
0.0026627120096236467 0.06353782117366791 0.019077729433774948
0.002631532493978739 0.0662287026643753 0.020002977922558784
0.002616326557472348 0.06884437799453735 0.02091270498931408
0.002617395017296076 0.07137352973222733 0.0218379944562912
0.002632583025842905 0.07381594181060791 0.022779449820518494
0.0026584563311189413 0.076178640127182 0.023717761039733887
0.0026912044268101454 0.07846984267234802 0.024630362167954445
0.0027272577863186598 0.0806957259774208 0.025500256568193436
0.0027636769227683544 0.08285997062921524 0.026317361742258072
0.0027983631007373333 0.08496388047933578 0.02707807533442974
0.0028301344718784094 0.08700668066740036 0.027784543111920357
0.002858696971088648 0.08898583799600601 0.0284437108784914
0.002884538844227791 0.09089750796556473 0.029066143557429314
0.002908645896241069 0.09273742139339447 0.029663581401109692
0.0029320986941456795 0.09450206905603409 0.03024565614759922
0.002955782227218151 0.0961894765496254 0.030817780643701553
0.002980233170092106 0.09779949486255646 0.03138038516044617
0.003005585866048932 0.09933371841907501 0.031929079443216324
0.00303159118629992 0.100795216858387 0.0324554480612278
0.0030576810240745544 0.10218806564807893 0.03294825181365013
0.003083063056692481 0.1035165935754776 0.03339563310146332
0.0031068241223692894 0.10478343069553374 0.033790357410907745
0.0031280354596674442 0.10598793625831603 0.03413419425487518
0.00314584793522954 0.10712603479623796 0.03443831950426102
0.0031595712061971426 0.10819105803966524 0.03472106531262398
0.003168734721839428 0.10917483270168304 0.035004884004592896
0.003173124277964235 0.11006733775138855 0.0353173092007637
0.003172800177708268 0.11085627973079681 0.03569212183356285
0.0031680921092629433 0.11152911931276321 0.03616376966238022
0.0031595753971487284 0.1120763272047043 0.036758434027433395
0.003148033283650875 0.1124943643808365 0.03748584911227226
0.003134404309093952 0.11278756707906722 0.038334086537361145
0.0031197243370115757 0.1129685789346695 0.039268411695957184
0.003105060663074255 0.11305730044841766 0.04023414105176926

CELLS 50 150
2 0 1
2 1 2
2 2 3
2 3 4
2 4 5
2 5 6
2 6 7
2 7 8
2 8 9
2 9 10
2 10 11
2 11 12
2 12 13
2 13 14
2 14 15
2 15 16
2 16 17
2 17 18
2 18 19
2 19 20
2 20 21
2 21 22
2 22 23
2 23 24
2 24 25
2 25 26
2 26 27
2 27 28
2 28 29
2 29 30
2 30 31
2 31 32
2 32 33
2 33 34
2 34 35
2 35 36
2 36 37
2 37 38
2 38 39
2 39 40
2 40 41
2 41 42
2 42 43
2 43 44
2 44 45
2 45 46
2 46 47
2 47 48
2 48 49
2 49 50

CELL_TYPES 50
4
4
4
4
4
4
4
4
4
4
4
4
4
4
4
4
4
4
4
4
4
4
4
4
4
4
4
4
4
4
4
4
4
4
4
4
4
4
4
4
4
4
4
4
4
4
4
4
4
4

POINT_DATA 51

SCALARS zone float
LOOKUP_TABLE default
1.0
1.0
1.0
1.0
1.0
1.0
1.0
1.0
1.0
1.0
1.0
1.0
1.0
1.0
1.0
1.0
1.0
1.0
1.0
1.0
1.0
1.0
1.0
1.0
1.0
1.0
1.0
1.0
1.0
1.0
1.0
1.0
1.0
1.0
1.0
1.0
1.0
1.0
1.0
1.0
1.0
1.0
1.0
1.0
1.0
1.0
1.0
1.0
1.0
1.0
1.0

VECTORS normals float
-3.124873182969168e-5 0.0018650402780622244 0.0009233346208930017
-7.693334191571921e-5 0.0037817433476448055 0.0015936503186821938
-0.0001838376629166305 0.0038356070872396226 0.0012235085014253855
-0.0003538915771059692 0.003832006594166159 0.001011247979477048
-0.0004319281433708965 0.0037823317106813192 0.0009255760814994573
-0.0003430845681577921 0.003633663756772876 0.001111885067075491
-0.00012902190792374313 0.003460840554907918 0.001364560448564589
8.561566210119054e-5 0.0033831882756203417 0.001355755259282887
0.0002117376570822671 0.0033180627506226306 0.0013125338591635227
0.00024546831264160573 0.0032238794956356283 0.0013491471763700247
0.0002179679140681401 0.0031690385658293962 0.0012776687508448958
0.00015853419608902186 0.0031226591672748327 0.0011829424183815718
9.012437658384442e-5 0.0030472013168036938 0.0011681080795824528
2.9283044568728656e-5 0.002958035096526146 0.0011909378226846457
-1.4497647498501465e-5 0.002879857551306486 0.0011835758341476321
-3.826815736829303e-5 0.002820356050506234 0.001124902511946857
-4.407023516250774e-5 0.0027719985228031874 0.0010356106795370579
-3.708776057465002e-5 0.002719887299463153 0.0009566328371874989
-2.319276609341614e-5 0.002653277711942792 0.0009174880688078701
-7.068673312460305e-6 0.00257241353392601 0.0009175081504508852
8.128289664455224e-6 0.002485782140865922 0.0009333729394711555
2.053066054941155e-5 0.002402555663138628 0.0009398830006830394
2.9310647732927464e-5 0.002326949732378125 0.0009254559408873321
3.440070213400759e-5 0.0022585431579500437 0.0008912486373446881
3.623620068538003e-5 0.0021950656082481146 0.0008434996125288307
3.555265357135795e-5 0.00213407794944942 0.0007889089756645262
3.3228800020879135e-5 0.0020733552519232035 0.0007335905102081597
3.0166916985763237e-5 0.0020109780598431826 0.0006828174809925258
2.720216980378609e-5 0.001945414231158793 0.0006408000481314957
2.4974500774987977e-5 0.0018757907673716547 0.0006099360180087388
2.3779994080541655e-5 0.001802278566174209 0.0005897563532926142
2.3568165488541126e-5 0.001726028509438038 0.0005770990392193198
2.406723433523439e-5 0.0016487141838297248 0.0005673657287843525
2.4901799406507052e-5 0.001572121400386095 0.0005556500400416553
2.5678929887362756e-5 0.0014978594845160842 0.0005375301698222756
2.604758265078999e-5 0.0014271732652559876 0.0005095863598398864
2.573603342170827e-5 0.0013606906868517399 0.00047009295667521656
2.45715600613039e-5 0.0012976829893887043 0.00042105253669433296
2.2486185116576962e-5 0.001235669245943427 0.00036928110057488084
1.951184640347492e-5 0.0011712999548763037 0.0003239815996494144
1.5767878721817397e-5 0.0011015612399205565 0.0002934344229288399
1.1443358744145371e-5 0.0010243995347991586 0.00028328175540082157
6.776487680326682e-6 0.0009381409035995603 0.00029812264256179333
2.0328297978267074e-6 0.0008407244458794594 0.0003436193510424346
-2.5160579752991907e-6 0.0007308917120099068 0.00042322956142015755
-6.612403467443073e-6 0.0006100249593146145 0.0005331555148586631
-1.002946464723209e-5 0.0004826218646485358 0.0006610399577766657
-1.2585563126776831e-5 0.00035561854019761086 0.0007878260221332312
-1.4154468772176187e-5 0.00023710684035904703 0.0008912815246731043
-1.4671891221951226e-5 0.00013486795069184154 0.000950027839280665
-7.331854249059689e-6 4.436203380464576e-5 0.00048286537639796734

CELL_DATA 50

VECTORS liftinglineloading               float
0.08736323565244675 -0.03765732795000076 0.08075640350580215
0.035284947603940964 -0.023755718022584915 0.05094429850578308
0.024598123505711555 -0.022814424708485603 0.04892569035291672
0.21345829963684085 -0.051690857857465744 0.11085139960050583
-0.1686324030160904 -0.11956825852394103 0.2564149498939514
-1.1595224142074585 -0.2748402953147888 0.5893968939781189
-2.8781819343566895 -0.5217651724815369 1.1189289093017578
-4.617711067199707 -0.7594718933105469 1.6286927461624146
-6.375199317932129 -0.978570818901062 2.0985519886016846
-8.582677841186523 -1.203997254371643 2.5819802284240723
-10.82140827178955 -1.4183460474014282 3.0416529178619385
-12.501723289489746 -1.5496652126312256 3.323267698287964
-13.601685523986816 -1.6053553819656372 3.4426958560943604
-14.333860397338869 -1.6309754848480225 3.49763822555542
-14.829765319824219 -1.6171220541000366 3.4679293632507324
-15.153705596923828 -1.592830777168274 3.4158368110656734
-15.212711334228517 -1.509163498878479 3.2364115715026855
-15.197489738464355 -1.4440516233444214 3.096778631210327
-15.241889953613283 -1.3847992420196533 2.9697115421295166
-14.76619529724121 -1.2886955738067627 2.7636165618896484
-14.617592811584473 -1.2371201515197754 2.653012752532959
-14.735857009887697 -1.2008124589920044 2.575150728225708
-14.681236267089844 -1.132793664932251 2.429283857345581
-14.986123085021973 -1.1224347352981567 2.407068967819214
-15.3800630569458 -1.080341100692749 2.3167989253997803
-15.766278266906738 -1.052940845489502 2.2580389976501465
-16.024341583251953 -1.026113748550415 2.2005081176757812
-16.601055145263672 -1.0129156112670898 2.1722044944763184
-17.06157112121582 -0.9809136986732483 2.103576183319092
-18.023780822753906 -0.961696207523346 2.062364101409912
-18.34404945373535 -0.9177866578102111 1.9681997299194336
-18.58877182006836 -0.8693550229072571 1.8643378019332884
-18.729623794555664 -0.8158598542213439 1.749617099761963
-18.957687377929688 -0.7457722425460815 1.599313735961914
-18.79452896118164 -0.7126837372779846 1.5283551216125488
-18.56049919128418 -0.6626748442649841 1.42111074924469
-18.222362518310547 -0.623249888420105 1.3365637063980103
-17.508787155151367 -0.5890893936157227 1.2633062601089478
-16.871131896972656 -0.5727443695068359 1.2282543182373047
-16.17412757873535 -0.5521904230117798 1.1841760873794556
-15.486397743225098 -0.5316374897956848 1.1401002407073975
-14.059839248657227 -0.49696922302246094 1.0657539367675781
-12.359304428100586 -0.48972719907760626 1.0502233505249023
-10.41600513458252 -0.526750385761261 1.1296199560165405
-8.760172843933105 -0.5955411195755005 1.27714204788208
-7.138662815093994 -0.6396638751029968 1.3717637062072754
-5.8020429611206055 -0.6468752026557922 1.3872283697128296
-4.513296604156494 -0.6364392638206482 1.3648483753204346
-3.133845567703247 -0.6317322254180908 1.354754090309143
-1.7590547800064087 -0.6472912430763245 1.3881206512451172