# vtk DataFile Version 4.0
 
ASCII
DATASET UNSTRUCTURED_GRID
POINTS 51 float
0.0032922609243541956 0.006700832396745682 0.0033366039860993624
0.003229763358831405 0.008371223695576191 0.0071488842368125916
0.003138394095003605 0.010446041822433472 0.010639933869242668
0.0028620881494134665 0.012674802914261818 0.013954369351267815
0.0024306110572069883 0.015016981400549412 0.01711558736860752
0.0019982317462563515 0.017279773950576782 0.020234905183315277
0.0017444419208914044 0.019154665991663933 0.02349044382572174
0.001740187988616526 0.020827842876315117 0.026774704456329346
0.0019156732596457005 0.022595085203647614 0.029916923493146893
0.00216366327367723 0.024224048480391502 0.03305124118924141
0.002406609710305929 0.025799924507737163 0.03612847626209259
0.0025995990727096796 0.0274367593228817 0.03908278048038483
0.002723678248003125 0.02906335517764091 0.041955262422561646
0.0027798479422926903 0.030603650957345966 0.04478983208537102
0.002782244235277176 0.032064288854599 0.04758266359567642
0.0027508526109158993 0.03349427506327629 0.050305452197790146
0.0027057079132646322 0.034939177334308624 0.05293189361691475
0.0026627120096236467 0.03640986606478691 0.055455710738897324
0.002631532493978739 0.03787646070122719 0.057894159108400345
0.002616326557472348 0.03929542377591133 0.06027237325906753
0.002617395017296076 0.04063810408115387 0.06260689347982407
0.002632583025842905 0.041903942823410034 0.0648980438709259
0.0026584563311189413 0.043110739439725876 0.06713554263114929
0.0026912044268101454 0.04427929222583771 0.06930739432573318
0.0027272577863186598 0.04542526230216026 0.07140454649925232
0.0027636769227683544 0.046557944267988205 0.07342162728309631
0.0027983631007373333 0.04768065735697746 0.07535673677921295
0.0028301344718784094 0.04879142343997955 0.07721100747585297
0.002858696971088648 0.04988384246826172 0.07898814231157303
0.002884538844227791 0.05094817653298378 0.08069375157356262
0.002908645896241069 0.051973599940538406 0.08233408629894257
0.0029320986941456795 0.05295125022530556 0.08391427248716354
0.002955782227218151 0.05387612804770469 0.08543719351291656
0.002980233170092106 0.054747834801673896 0.08690307289361954
0.003005585866048932 0.05557042732834815 0.08830957859754562
0.00303159118629992 0.0563516542315483 0.08965223282575607
0.0030576810240745544 0.05710187181830406 0.09092504531145096
0.003083063056692481 0.057832013815641396 0.09212172031402588
0.0031068241223692894 0.05854874104261398 0.09323840588331223
0.0031280354596674442 0.05925042927265168 0.09427604079246521
0.00314584793522954 0.05992677435278893 0.09524057060480118
0.0031595712061971426 0.060560885816812515 0.0961417481303215
0.003168734721839428 0.06113206595182419 0.09699152410030365
0.003173124277964235 0.06161494180560113 0.09780454635620117
0.003172800177708268 0.061978381127119064 0.09859879314899445
0.0031680921092629433 0.062190640717744834 0.0993925929069519
0.0031595753971487284 0.062227584421634674 0.1001998707652092
0.003148033283650875 0.06208024546504021 0.10102581232786179
0.003134404309093952 0.06175961345434188 0.10186406224966049
0.0031197243370115757 0.06129770353436469 0.10269615054130554
0.003105060663074255 0.060744911432266235 0.10349297523498537

CELLS 50 150
2 0 1
2 1 2
2 2 3
2 3 4
2 4 5
2 5 6
2 6 7
2 7 8
2 8 9
2 9 10
2 10 11
2 11 12
2 12 13
2 13 14
2 14 15
2 15 16
2 16 17
2 17 18
2 18 19
2 19 20
2 20 21
2 21 22
2 22 23
2 23 24
2 24 25
2 25 26
2 26 27
2 27 28
2 28 29
2 29 30
2 30 31
2 31 32
2 32 33
2 33 34
2 34 35
2 35 36
2 36 37
2 37 38
2 38 39
2 39 40
2 40 41
2 41 42
2 42 43
2 43 44
2 44 45
2 45 46
2 46 47
2 47 48
2 48 49
2 49 50

CELL_TYPES 50
4
4
4
4
4
4
4
4
4
4
4
4
4
4
4
4
4
4
4
4
4
4
4
4
4
4
4
4
4
4
4
4
4
4
4
4
4
4
4
4
4
4
4
4
4
4
4
4
4
4

POINT_DATA 51

SCALARS zone float
LOOKUP_TABLE default
1.0
1.0
1.0
1.0
1.0
1.0
1.0
1.0
1.0
1.0
1.0
1.0
1.0
1.0
1.0
1.0
1.0
1.0
1.0
1.0
1.0
1.0
1.0
1.0
1.0
1.0
1.0
1.0
1.0
1.0
1.0
1.0
1.0
1.0
1.0
1.0
1.0
1.0
1.0
1.0
1.0
1.0
1.0
1.0
1.0
1.0
1.0
1.0
1.0
1.0
1.0

VECTORS normals float
-3.124873182969168e-5 0.0008351956494152545 0.0019061401253566146
-7.693334191571921e-5 0.0018726048292592168 0.003651664825156331
-0.0001838376629166305 0.00215178937651217 0.0034027425572276115
-0.0003538915771059692 0.0022854695562273264 0.0032378272153437138
-0.0004319281433708965 0.0023024852853268385 0.0031402683816850185
-0.0003430845681577921 0.002068842062726617 0.0031874275300651793
-0.00012902190792374313 0.0017740350449457762 0.0032698994036763906
8.561566210119054e-5 0.0017202099552378056 0.003213240299373865
0.0002117376570822671 0.0016981029184535148 0.003138268832117319
0.00024546831264160573 0.0016024198848754168 0.003105776384472847
0.0002179679140681401 0.0016063547227531672 0.0030157698784023523
0.00015853419608902186 0.001631714985705912 0.0029133930802345276
9.012437658384442e-5 0.0015834462828934193 0.002853526035323739
2.9283044568728656e-5 0.001500466256402433 0.0028136996552348137
-1.4497647498501465e-5 0.0014453110052272677 0.0027578084263950586
-3.826815736829303e-5 0.0014374447055161 0.002674615243449807
-4.407023516250774e-5 0.0014577964320778847 0.0025751302018761635
-3.708776057465002e-5 0.0014686427311971784 0.0024811329785734415
-2.319276609341614e-5 0.0014427787391468883 0.0024083307944238186
-7.068673312460305e-6 0.001380820176564157 0.0023563674185425043
8.128289664455224e-6 0.0013042590580880642 0.0023128350730985403
2.053066054941155e-5 0.0012363193091005087 0.002264325274154544
2.9310647732927464e-5 0.0011876753997057676 0.0022046747617423534
3.440070213400759e-5 0.0011572609655559063 0.002134499605745077
3.623620068538003e-5 0.0011393266031518579 0.0020571190398186445
3.555265357135795e-5 0.0011276975274085999 0.0019760981667786837
3.3228800020879135e-5 0.0011167393531650305 0.0018946899799630046
3.0166916985763237e-5 0.0011015919735655189 0.00181570032145828
2.720216980378609e-5 0.001078375382348895 0.0017413694877177477
2.4974500774987977e-5 0.0010448797838762403 0.001672973157837987
2.3779994080541655e-5 0.0010015374282374978 0.0016102619701996446
2.3568165488541126e-5 0.0009512624819763006 0.001551553257741034
2.406723433523439e-5 0.0008982926374301314 0.0014944004360586405
2.4901799406507052e-5 0.0008471498731523753 0.001436192775145173
2.5678929887362756e-5 0.000801909191068262 0.0013745775213465095
2.604758265078999e-5 0.0007657223613932729 0.0013077351031824946
2.573603342170827e-5 0.0007401796174235642 0.0012347472365945578
2.45715600613039e-5 0.0007234354852698743 0.0011566794710233808
2.2486185116576962e-5 0.0007092082523740828 0.00107715860940516
1.951184640347492e-5 0.0006890164222568274 0.0010010814294219017
1.5767878721817397e-5 0.0006552287959493697 0.0009328537271358072
1.1443358744145371e-5 0.0006026455666869879 0.0008754777372814714
6.776487680326682e-6 0.0005270280526019633 0.0008314005099236964
2.0328297978267074e-6 0.00042315805330872536 0.0008036349317990245
-2.5160579752991907e-6 0.0002878488157875836 0.0007940208306536078
-6.612403467443073e-6 0.0001246004831045866 0.0008005372947081923
-1.002946464723209e-5 -5.5198481277329854e-5 0.0008166093612089752
-1.2585563126776831e-5 -0.00023398519260808825 0.0008320969063788652
-1.4154468772176187e-5 -0.00039127032505348325 0.0008351706201210618
-1.4671891221951226e-5 -0.0005073513020761311 0.000814454979263246
-7.331854249059689e-6 -0.00027639660402201116 0.0003984117065556347

CELL_DATA 50

VECTORS liftinglineloading               float
0.09043405950069427 -0.08216313272714615 0.03831329569220543
0.050688620656728745 -0.06555068492889404 0.030566785484552383
0.005148359574377537 -0.040910784155130386 0.019077012315392494
0.2267892509698868 -0.10391491651535034 0.04845631867647171
-0.14648178219795227 -0.24779920279979706 0.11555066704750062
-1.1223868131637573 -0.576582670211792 0.2688648998737335
-2.849853992462158 -1.108875036239624 0.5170769095420837
-4.604011058807373 -1.6207239627838135 0.7557559609413147
-6.376171588897705 -2.08974289894104 0.9744630455970763
-8.604217529296875 -2.5731048583984375 1.1998584270477295
-10.867289543151855 -3.0344150066375732 1.4149709939956665
-12.553011894226074 -3.312601089477539 1.5446912050247192
-13.73155117034912 -3.4308094978332524 1.5998127460479736
-14.490941047668455 -3.4901123046874996 1.6274662017822268
-14.98135757446289 -3.4647538661956783 1.6156412363052368
-15.295279502868652 -3.4165825843811035 1.593178629875183
-15.316095352172852 -3.238691806793213 1.5102267265319824
-15.262985229492188 -3.0965023040771484 1.443922758102417
-15.272764205932617 -2.9658291339874268 1.3829888105392456
-14.783328056335447 -2.759337902069092 1.2867003679275513
-14.635350227355957 -2.648616075515747 1.2350698709487915
-14.851689338684082 -2.575667381286621 1.2010533809661865
-14.818574905395506 -2.4345784187316895 1.1352624893188477
-15.094098091125487 -2.409621477127075 1.1236249208450317
-15.446971893310547 -2.3168091773986816 1.080345869064331
-15.794569969177246 -2.256787061691284 1.0523570775985718
-16.022253036499023 -2.198817014694214 1.0253251791000366
-16.524625778198242 -2.169562578201294 1.011683702468872
-16.890697479248047 -2.1004154682159424 0.9794398546218871
-17.75193977355957 -2.061429023742676 0.961260199546814
-17.996204376220703 -1.9721329212188723 0.9196206331253052
-18.19610595703125 -1.8733491897583008 0.8735570311546327
-18.28508186340332 -1.763980507850647 0.8225576281547546
-18.40700912475586 -1.6155294179916382 0.7533337473869324
-18.236591339111328 -1.5466958284378052 0.7212361097335815
-17.993776321411133 -1.4392300844192505 0.6711240410804749
-17.645559310913086 -1.352866291999817 0.6308519244194031
-16.965818405151367 -1.2787652015686035 0.5962980389595032
-16.32771873474121 -1.2412315607070923 0.5787957906723022
-15.62537670135498 -1.1957734823226929 0.5575982928276062
-14.976176261901857 -1.151228427886963 0.5368266701698303
-13.56921100616455 -1.075811743736267 0.5016592144966125
-11.935547828674316 -1.0517487525939941 0.4904384911060333
-10.036437034606934 -1.1269512176513672 0.5255059599876404
-8.427163124084473 -1.263832688331604 0.5893348455429077
-6.828717231750488 -1.3565231561660767 0.6325571537017822
-5.533842086791992 -1.3691749572753906 0.6384567618370056
-4.284524440765381 -1.344616174697876 0.6270048022270203
-2.961655855178833 -1.3327656984329224 0.6214788556098938
-1.6523281335830688 -1.3661020994186401 0.6370238661766052