# vtk DataFile Version 4.0
 
ASCII
DATASET UNSTRUCTURED_GRID
POINTS 51 float
0.0032922609243541956 -0.004662906751036644 -0.005855884402990341
0.003229763358831405 -0.0045656561851501465 -0.010016921907663345
0.003138394095003605 -0.004970699083060026 -0.014057742431759833
0.0028620881494134665 -0.005589901003986597 -0.01800355687737465
0.0024306110572069883 -0.006376647390425205 -0.021858440712094307
0.0019982317462563515 -0.007109152153134346 -0.025641800835728645
0.0017444419208914044 -0.007432532496750355 -0.029384681954979893
0.001740187988616526 -0.0075609576888382435 -0.033068351447582245
0.0019156732596457005 -0.0078346636146307 -0.03666303679347038
0.00216366327367723 -0.007986386306583881 -0.040192123502492905
0.002406609710305929 -0.008114119060337543 -0.04364703968167305
0.0025995990727096796 -0.008349050767719746 -0.04701630398631096
0.002723678248003125 -0.008609284646809101 -0.05030708760023117
0.0027798479422926903 -0.00880732573568821 -0.053527038544416435
0.002782244235277176 -0.008950811810791492 -0.0566754899919033
0.0027508526109158993 -0.009096118621528149 -0.05974751338362694
0.0027057079132646322 -0.009295663796365261 -0.06273852288722992
0.0026627120096236467 -0.009561949409544468 -0.0656474158167839
0.002631532493978739 -0.00986060407012701 -0.06847721338272095
0.002616326557472348 -0.010141543112695217 -0.07123228162527084
0.002617395017296076 -0.010371812619268894 -0.0739155188202858
0.002632583025842905 -0.010550770908594131 -0.07652696967124939
0.0026584563311189413 -0.01069889310747385 -0.07906485348939896
0.0026912044268101454 -0.010840097442269325 -0.08152706921100616
0.0027272577863186598 -0.01099240593612194 -0.08391203731298447
0.0027636769227683544 -0.011166506446897984 -0.08621883392333984
0.0027983631007373333 -0.011366217397153378 -0.08844711631536484
0.0028301344718784094 -0.011589264497160912 -0.09059708565473557
0.002858696971088648 -0.011828283779323101 -0.09266939014196396
0.002884538844227791 -0.012072076089680195 -0.09466500580310822
0.002908645896241069 -0.012308191508054733 -0.09658502042293549
0.0029320986941456795 -0.012526425532996655 -0.0984303280711174
0.002955782227218151 -0.012721034698188307 -0.10020142793655396
0.002980233170092106 -0.012891563586890696 -0.10189836472272873
0.003005585866048932 -0.013042669743299484 -0.1035207360982895
0.00303159118629992 -0.013183273375034332 -0.10506775230169296
0.0030576810240745544 -0.013325284235179423 -0.10653837025165559
0.003083063056692481 -0.013481280766427517 -0.1079315021634102
0.0031068241223692894 -0.013658926822245121 -0.10924646258354187
0.0031280354596674442 -0.013856349512934686 -0.11048342287540436
0.00314584793522954 -0.014061698690056799 -0.11164341866970062
0.0031595712061971426 -0.01425554510205984 -0.11272814869880676
0.003168734721839428 -0.014414077624678612 -0.11373969912528992
0.003173124277964235 -0.014508114196360113 -0.11468062549829483
0.003172800177708268 -0.014501838944852352 -0.11555404961109161
0.0031680921092629433 -0.014358738437294962 -0.11636318266391754
0.0031595753971487284 -0.014051048085093498 -0.11711043864488602
0.003148033283650875 -0.013568456284701824 -0.11779672652482986
0.003134404309093952 -0.012923603877425194 -0.11842093616724014
0.0031197243370115757 -0.012153317220509052 -0.11897984892129898
0.003105060663074255 -0.011315564624965191 -0.11946839839220047

CELLS 50 150
2 0 1
2 1 2
2 2 3
2 3 4
2 4 5
2 5 6
2 6 7
2 7 8
2 8 9
2 9 10
2 10 11
2 11 12
2 12 13
2 13 14
2 14 15
2 15 16
2 16 17
2 17 18
2 18 19
2 19 20
2 20 21
2 21 22
2 22 23
2 23 24
2 24 25
2 25 26
2 26 27
2 27 28
2 28 29
2 29 30
2 30 31
2 31 32
2 32 33
2 33 34
2 34 35
2 35 36
2 36 37
2 37 38
2 38 39
2 39 40
2 40 41
2 41 42
2 42 43
2 43 44
2 44 45
2 45 46
2 46 47
2 47 48
2 48 49
2 49 50

CELL_TYPES 50
4
4
4
4
4
4
4
4
4
4
4
4
4
4
4
4
4
4
4
4
4
4
4
4
4
4
4
4
4
4
4
4
4
4
4
4
4
4
4
4
4
4
4
4
4
4
4
4
4
4

POINT_DATA 51

SCALARS zone float
LOOKUP_TABLE default
1.0
1.0
1.0
1.0
1.0
1.0
1.0
1.0
1.0
1.0
1.0
1.0
1.0
1.0
1.0
1.0
1.0
1.0
1.0
1.0
1.0
1.0
1.0
1.0
1.0
1.0
1.0
1.0
1.0
1.0
1.0
1.0
1.0
1.0
1.0
1.0
1.0
1.0
1.0
1.0
1.0
1.0
1.0
1.0
1.0
1.0
1.0
1.0
1.0
1.0
1.0

VECTORS normals float
-3.124873182969168e-5 4.862529385718517e-5 -0.0020805185195058584
-7.693334191571921e-5 -0.00015389610780403018 -0.004100929480046034
-0.0001838376629166305 -0.0005121222930029035 -0.003993317484855652
-0.0003538915771059692 -0.0007029740372672677 -0.0039003493729978795
-0.0004319281433708965 -0.0007596256327815354 -0.0038191219791769986
-0.0003430845681577921 -0.0005279425531625748 -0.003763120621442795
-0.00012902190792374313 -0.0002259026514366269 -0.0037132748402655125
8.561566210119054e-5 -0.00020106560259591788 -0.0036391767207533117
0.0002117376570822671 -0.00021271422156132755 -0.003561886725947261
0.00024546831264160573 -0.00013972776650916785 -0.0034920012112706904
0.0002179679140681401 -0.00018133236153516918 -0.003412090474739671
0.00015853419608902186 -0.0002475828805472702 -0.0033300232607871294
9.012437658384442e-5 -0.00022913746943231672 -0.003255366114899516
2.9283044568728656e-5 -0.00017076336371246725 -0.0031842023599892855
-1.4497647498501465e-5 -0.0001443964138161391 -0.003110238118097186
-3.826815736829303e-5 -0.00017242603644263 -0.0030315150506794453
-4.407023516250774e-5 -0.00023291524848900735 -0.0029499519150704145
-3.708776057465002e-5 -0.00028247019508853555 -0.0028693454805761576
-2.319276609341614e-5 -0.0002897970553021878 -0.0027924336027354
-7.068673312460305e-6 -0.0002556041581556201 -0.002719154115766287
8.128289664455224e-6 -0.00020461379608605057 -0.0026473442558199167
2.053066054941155e-5 -0.0001635406370041892 -0.0025746666360646486
2.9310647732927464e-5 -0.00014466355787590146 -0.0025000472087413073
3.440070213400759e-5 -0.00014675603597424924 -0.002423593308776617
3.623620068538003e-5 -0.00016320451686624438 -0.002345883287489414
3.555265357135795e-5 -0.00018690593424253166 -0.0022675388026982546
3.3228800020879135e-5 -0.00021137898147571832 -0.0021891267970204353
3.0166916985763237e-5 -0.00023103326384443792 -0.0021111362148076296
2.720216980378609e-5 -0.00024140549066942185 -0.0020339577458798885
2.4974500774987977e-5 -0.0002399537042947486 -0.0019578139763325453
2.3779994080541655e-5 -0.00022717508545611054 -0.001882660901173949
2.3568165488541126e-5 -0.0002064218278974295 -0.0018082057358697055
2.406723433523439e-5 -0.0001825687213568017 -0.0017340215854346752
2.4901799406507052e-5 -0.00016081726062111557 -0.0016596537316218019
2.5678929887362756e-5 -0.00014585501048713923 -0.0015846918104216456
2.604758265078999e-5 -0.00014130740601103753 -0.00150881870649755
2.573603342170827e-5 -0.00014900382666382939 -0.0014318744651973248
2.45715600613039e-5 -0.00016682133718859404 -0.001354044652543962
2.2486185116576962e-5 -0.00018753405311144888 -0.0012759616365656257
1.951184640347492e-5 -0.00020138570107519627 -0.0011984787415713072
1.5767878721817397e-5 -0.00019959796918556094 -0.0011223643086850643
1.1443358744145371e-5 -0.00017618948186282068 -0.0010481412755325437
6.776487680326682e-6 -0.00012628459080588073 -0.0009762364788912237
2.0328297978267074e-6 -4.388063098303974e-5 -0.0009071749518625438
-2.5160579752991907e-6 7.468806870747358e-5 -0.0008412774186581374
-6.612403467443073e-6 0.00022539529891218993 -0.0007781916647218168
-1.002946464723209e-5 0.00039514084346592426 -0.0007167715230025351
-1.2585563126776831e-5 0.0005637219874188304 -0.0006552495178766549
-1.4154468772176187e-5 0.0007075697067193687 -0.0005915636429563165
-1.4671891221951226e-5 0.0008040199754759669 -0.0005237309960648417
-7.331854249059689e-6 0.000418876443291083 -0.0002442733966745436

CELL_DATA 50

VECTORS liftinglineloading               float
0.09308715164661407 0.0917854756116867 -3.3996164969907856e-16
0.06705495715141296 0.08847944438457489 -3.2771651789709677e-16
-0.015176440589129925 0.03758321329951286 -1.3920340625502145e-16
0.23559361696243286 0.10664058476686479 -3.9498308353792544e-16
-0.12165912985801697 0.26185929775238037 -9.698932763085237e-16
-1.074777364730835 0.6171930432319641 -2.286004070027191e-15
-2.7955901622772217 1.2030340433120728 -4.455884158150554e-15
-4.548636436462402 1.7664819955825806 -6.542823415353486e-15
-6.32041072845459 2.2808756828308105 -8.448071987788002e-15
-8.54810619354248 2.810906410217285 -1.0411237708540452e-14
-10.815143585205078 3.3181929588317876 -1.2290162614556673e-14
-12.499458312988281 3.6217899322509766 -1.3414646285881805e-14
-13.620761871337889 3.7545759677886967 -1.3906469190441436e-14
-14.368465423583983 3.8183269500732417 -1.4142594024048676e-14
-14.879728317260744 3.792340517044067 -1.4046343129153325e-14
-15.240742683410645 3.7444128990173344 -1.3868826199232506e-14
-15.318784713745117 3.557370901107788 -1.3176046422002687e-14
-15.322539329528809 3.4078912734985356 -1.2622393500425279e-14
-15.365970611572266 3.265867710113525 -1.2096356394027207e-14
-14.90070915222168 3.042963743209839 -1.1270748298140756e-14
-14.743156433105469 2.921654462814331 -1.0821433742039081e-14
-14.794754028320314 2.82857084274292 -1.0476664227452269e-14
-14.73618221282959 2.67313289642334 -9.900942709467099e-15
-14.983861923217775 2.6452205181121826 -9.797558103089975e-15
-15.315979003906248 2.5436012744903564 -9.421173083746896e-15
-15.646846771240233 2.4784233570098877 -9.17976276454879e-15
-15.83023452758789 2.413856267929077 -8.940614023319852e-15
-16.332340240478516 2.384230136871338 -8.8308834461019e-15
-16.706283569335938 2.3093154430389404 -8.553409005108547e-15
-17.590713500976562 2.2686948776245117 -8.402954777852502e-15
-17.874643325805664 2.172104597091675 -8.045196860052492e-15
-18.09195327758789 2.0640578269958496 -7.64500597972683e-15
-18.218236923217773 1.9433737993240354 -7.19800721170295e-15
-18.401124954223633 1.7824639081954954 -6.60201788935588e-15
-18.236799240112305 1.7061589956283567 -6.319394758592641e-15
-18.00013542175293 1.5872820615768433 -5.879089244917963e-15
-17.657743453979492 1.4918010234832764 -5.52543986042861e-15
-16.981670379638672 1.4098914861679077 -5.222057646194064e-15
-16.347660064697266 1.3684606552124023 -5.068603228238844e-15
-15.64927291870117 1.3182882070541382 -4.882770552358355e-15
-15.068618774414062 1.267701506614685 -4.6954038998103884e-15
-13.657060623168947 1.1847529411315918 -4.388173191379992e-15
-12.011139869689941 1.159962773323059 -4.296353549348205e-15
-10.103418350219727 1.2438119649887085 -4.6069202970413625e-15
-8.486527442932129 1.397156000137329 -5.174887228394419e-15
-6.885511875152587 1.4999967813491821 -5.5557962507087836e-15
-5.584943771362305 1.51480233669281 -5.610634010746974e-15
-4.330334186553955 1.4885233640670776 -5.513299760712088e-15
-2.99788761138916 1.4762629270553589 -5.4678886303438905e-15
-1.675981044769287 1.5134526491165161 -5.605634822292279e-15