# vtk DataFile Version 4.0
 
ASCII
DATASET UNSTRUCTURED_GRID
POINTS 51 float
0.0032922609243541956 0.007178427185863257 0.0021223260555416346
0.003229763358831405 0.009485436603426933 0.005586628802120686
0.003138394095003605 0.012134948745369911 0.00866435281932354
0.0028620881494134665 0.014905394986271858 0.011541415005922318
0.0024306110572069883 0.017760930582880974 0.014247892424464226
0.0019982317462563515 0.020531009882688522 0.01692689210176468
0.0017444419208914044 0.022942734882235527 0.019807398319244385
0.001740187988616526 0.02516080066561699 0.02275121957063675
0.0019156732596457005 0.02744683437049389 0.025538822636008263
0.00216366327367723 0.02959531918168068 0.028342656791210175
0.002406609710305929 0.0316816121339798 0.03109949454665184
0.0025995990727096796 0.033806584775447845 0.03372468426823616
0.002723678248003125 0.03590727224946022 0.03627106919884682
0.0027798479422926903 0.037916384637355804 0.038795106112957
0.002782244235277176 0.03983980044722557 0.041291870176792145
0.0027508526109158993 0.04172087088227272 0.04372498020529747
0.0027057079132646322 0.04359989985823631 0.04606061428785324
0.0026627120096236467 0.04548650234937668 0.04829070717096329
0.002631532493978739 0.04735424742102623 0.05043743923306465
0.002616326557472348 0.049164626747369766 0.05253311991691589
0.002617395017296076 0.050892289727926254 0.054599020630121224
0.002632583025842905 0.052536752074956894 0.056635551154613495
0.0026584563311189413 0.05411375686526298 0.05862950161099434
0.0026912044268101454 0.055641692131757736 0.060565438121557236
0.0027272577863186598 0.05713441967964172 0.062431734055280685
0.0027636769227683544 0.058600157499313354 0.06422148644924164
0.0027983631007373333 0.06004184111952782 0.0659322440624237
0.0028301344718784094 0.061457723379135125 0.06756546348333359
0.002858696971088648 0.06284213811159134 0.06912589818239212
0.002884538844227791 0.06418648362159729 0.07062077522277832
0.002908645896241069 0.06548117101192474 0.07205812633037567
0.0029320986941456795 0.06671836227178574 0.07344453781843185
0.002955782227218151 0.06789363920688629 0.07478372007608414
0.002980233170092106 0.06900665163993835 0.0760759562253952
0.003005585866048932 0.07006098330020905 0.07731825113296509
0.00303159118629992 0.07106348872184753 0.07850484549999237
0.0030576810240745544 0.07202333211898804 0.07962805777788162
0.003083063056692481 0.07295018434524536 0.0806797668337822
0.0031068241223692894 0.07384993135929108 0.08165502548217773
0.0031280354596674442 0.07472114264965057 0.08255504816770554
0.00314584793522954 0.07555470615625381 0.08338747918605804
0.0031595712061971426 0.07633566856384277 0.08416485041379929
0.003168734721839428 0.0770457312464714 0.08490253239870071
0.003173124277964235 0.07766245305538177 0.08561935275793076
0.003172800177708268 0.07815828919410706 0.08633842319250107
0.0031680921092629433 0.07850516587495804 0.08708330243825912
0.0031595753971487284 0.07868172973394394 0.08787190169095993
0.003148033283650875 0.07868005335330963 0.08871088176965714
0.003134404309093952 0.0785098522901535 0.08959207683801651
0.0031197243370115757 0.07819945365190506 0.09049173444509506
0.003105060663074255 0.0777934268116951 0.09137243777513504

CELLS 50 150
2 0 1
2 1 2
2 2 3
2 3 4
2 4 5
2 5 6
2 6 7
2 7 8
2 8 9
2 9 10
2 10 11
2 11 12
2 12 13
2 13 14
2 14 15
2 15 16
2 16 17
2 17 18
2 18 19
2 19 20
2 20 21
2 21 22
2 22 23
2 23 24
2 24 25
2 25 26
2 26 27
2 27 28
2 28 29
2 29 30
2 30 31
2 31 32
2 32 33
2 33 34
2 34 35
2 35 36
2 36 37
2 37 38
2 38 39
2 39 40
2 40 41
2 41 42
2 42 43
2 43 44
2 44 45
2 45 46
2 46 47
2 47 48
2 48 49
2 49 50

CELL_TYPES 50
4
4
4
4
4
4
4
4
4
4
4
4
4
4
4
4
4
4
4
4
4
4
4
4
4
4
4
4
4
4
4
4
4
4
4
4
4
4
4
4
4
4
4
4
4
4
4
4
4
4

POINT_DATA 51

SCALARS zone float
LOOKUP_TABLE default
1.0
1.0
1.0
1.0
1.0
1.0
1.0
1.0
1.0
1.0
1.0
1.0
1.0
1.0
1.0
1.0
1.0
1.0
1.0
1.0
1.0
1.0
1.0
1.0
1.0
1.0
1.0
1.0
1.0
1.0
1.0
1.0
1.0
1.0
1.0
1.0
1.0
1.0
1.0
1.0
1.0
1.0
1.0
1.0
1.0
1.0
1.0
1.0
1.0
1.0
1.0

VECTORS normals float
-3.124873182969168e-5 0.001153504941612482 0.0017321513732895255
-7.693334191571921e-5 0.0024782607797533274 0.003271013498306274
-0.0001838376629166305 0.002709978958591819 0.0029773928690701723
-0.0003538915771059692 0.002812991151586175 0.002791769802570343
-0.0004319281433708965 0.0028128072153776884 0.002692738315090537
-0.0003430845681577921 0.002590902615338564 0.002779752714559436
-0.00012902190792374313 0.002314895624294877 0.0029121642000973225
8.561566210119054e-5 0.0022520492784678936 0.0028657126240432262
0.0002117376570822671 0.0022172597236931324 0.002795719075948
0.00024546831264160573 0.0021173879504203796 0.0027803354896605015
0.0002179679140681401 0.002105633495375514 0.0026910128071904182
0.00015853419608902186 0.002112830989062786 0.0025857877917587757
9.012437658384442e-5 0.002054899698123336 0.0025352120865136385
2.9283044568728656e-5 0.0019662645645439625 0.0025104000233113766
-1.4497647498501465e-5 0.0019022419583052397 0.0024649356491863728
-3.826815736829303e-5 0.0018800486577674744 0.002384372055530548
-4.407023516250774e-5 0.0018828158499673011 0.0022828644141554832
-3.708776057465002e-5 0.0018771749455481768 0.002188412006944418
-2.319276609341614e-5 0.0018390619661659004 0.0021212068386375904
-7.068673312460305e-6 0.0017690213862806559 0.0020807920955121517
8.128289664455224e-6 0.0016860640607774258 0.0020512158516794443
2.053066054941155e-5 0.0016107327537611125 0.002015240490436554
2.9310647732927464e-5 0.0015524696791544557 0.0019649432506412268
3.440070213400759e-5 0.001510331523604691 0.001901115640066564
3.623620068538003e-5 0.0014792326837778091 0.0018280248623341324
3.555265357135795e-5 0.0014537111856043339 0.0017502541886642577
3.3228800020879135e-5 0.0014287830563262105 0.001671985606662929
3.0166916985763237e-5 0.001400149310939014 0.0015968263614922762
2.720216980378609e-5 0.001364378142170608 0.0015276562189683318
2.4974500774987977e-5 0.0013195144711062312 0.0014661154709756374
2.3779994080541655e-5 0.0012659408384934068 0.001411883276887238
2.3568165488541126e-5 0.0012062350288033485 0.0013627966400235891
2.406723433523439e-5 0.001144145498983562 0.0013157102512195706
2.4901799406507052e-5 0.001083672046661377 0.0012672677403315902
2.5678929887362756e-5 0.0010284192394465208 0.0012144445208832622
2.604758265078999e-5 0.0009811751078814268 0.0011549013433977962
2.573603342170827e-5 0.0009433462400920689 0.001087457756511867
2.45715600613039e-5 0.000913300144020468 0.0010134836193174124
2.2486185116576962e-5 0.0008854803745634853 0.0009376414236612618
1.951184640347492e-5 0.000852384720928967 0.0008662262698635459
1.5767878721817397e-5 0.0008072627824731172 0.0008049022872000932
1.1443358744145371e-5 0.0007455151062458754 0.0007575289346277714
6.776487680326682e-6 0.0006633925368078053 0.0007272522198036313
2.0328297978267074e-6 0.0005562790902331471 0.0007179452804848552
-2.5160579752991907e-6 0.0004213560314383357 0.0007319734431803226
-6.612403467443073e-6 0.0002617193676996976 0.0007667387253604829
-1.002946464723209e-5 8.744282968109474e-5 0.000813788326922804
-1.2585563126776831e-5 -8.59383144415915e-5 0.0008600866422057152
-1.4154468772176187e-5 -0.00024030019994825125 0.0008904258720576762
-1.4671891221951226e-5 -0.00035821483470499516 0.0008901822147890925
-7.331854249059689e-6 -0.0002030140458373353 0.0004403546918183565

CELL_DATA 50

VECTORS liftinglineloading               float
0.08953437954187393 -0.07392331212759018 0.05176165699958801
0.04589058831334114 -0.05519478768110276 0.03864780813455582
0.011219809763133526 -0.03912430629134178 0.027395134791731834
0.2232988178730011 -0.095924012362957 0.06716671586036682
-0.1535857915878296 -0.22664035856723788 0.1586952805519104
-1.1355187892913818 -0.5253881216049194 0.3678807020187378
-2.8629744052886963 -1.006388545036316 0.7046808004379272
-4.615297317504883 -1.4689598083496094 1.0285767316818237
-6.3852739334106445 -1.8934009075164797 1.3257735967636108
-8.609904289245605 -2.3306593894958496 1.6319452524185178
-10.867849349975586 -2.7474770545959473 1.9238041639328
-12.552059173583984 -2.9997007846832275 2.1004130840301514
-13.660524368286133 -3.1076767444610596 2.176018714904785
-14.396634101867676 -3.15789794921875 2.211184024810791
-14.895686149597166 -3.132545232772827 2.1934316158294678
-15.232578277587889 -3.0879480838775635 2.1622045040130615
-15.298537254333494 -2.9285242557525635 2.050574779510498
-15.293219566345215 -2.803309917449951 1.9628987312316897
-15.342156410217287 -2.6873257160186768 1.881685733795166
-14.879312515258789 -2.5024168491363525 1.7522110939025881
-14.73864269256592 -2.402765989303589 1.6824347972869873
-14.83025074005127 -2.3285157680511475 1.6304444074630735
-14.793963432312012 -2.200003147125244 1.5404587984085083
-15.077013969421385 -2.1779208183288574 1.5249966382980347
-15.439119338989258 -2.094417095184326 1.4665266275405884
-15.794920921325684 -2.0403120517730713 1.4286417961120605
-15.944663047790527 -1.9858994483947754 1.3905417919158936
-16.464624404907227 -1.9604152441024782 1.3726975917816162
-16.88022232055664 -1.8984479904174805 1.3293076753616333
-17.77646255493164 -1.8631659746170044 1.304602861404419
-18.039464950561523 -1.781749367713928 1.2475943565368652
-18.267595291137695 -1.6911718845367432 1.1841713190078735
-18.37654685974121 -1.590924620628357 1.1139774322509766
-18.54908561706543 -1.458141565322876 1.0210016965866089
-18.365781784057617 -1.3953604698181152 0.9770419001579285
-18.114383697509766 -1.2980393171310425 0.9088968634605408
-17.76130485534668 -1.2200391292572021 0.8542805314064026
-17.07091522216797 -1.1529059410095215 0.8072733879089355
-16.431760787963867 -1.1191352605819702 0.7836269736289978
-15.731639862060547 -1.0780235528945923 0.7548401951789856
-15.045196533203125 -1.0384039878845215 0.7270983457565308
-13.63169479370117 -0.9703549146652221 0.6794498562812805
-11.977042198181152 -0.9501079320907593 0.6652727127075195
-10.05648136138916 -1.0182561874389648 0.7129906415939331
-8.43290901184082 -1.1420563459396362 0.7996764779090881
-6.825769424438477 -1.2253412008285522 0.8579931855201721
-5.525300979614258 -1.236290693283081 0.865660011768341
-4.273165225982666 -1.2136064767837524 0.8497763872146606
-2.950556993484497 -1.202391266822815 0.841923415660858
-1.6440718173980713 -1.232066035270691 0.862701952457428