# vtk DataFile Version 4.0
 
ASCII
DATASET UNSTRUCTURED_GRID
POINTS 51 float
0.0032922609243541956 -0.006384529639035463 -0.003907923121005297
0.003229763358831405 -0.007716302759945393 -0.007851281203329563
0.003138394095003605 -0.009478960186243057 -0.011509877629578114
0.0028620881494134665 -0.011410367675125599 -0.015005950815975666
0.0024306110572069883 -0.01346811559051275 -0.018359273672103882
0.0019982317462563515 -0.01545043010264635 -0.021663937717676163
0.0017444419208914044 -0.01703444868326187 -0.025070494040846825
0.001740187988616526 -0.018415017053484917 -0.028488084673881527
0.0019156732596457005 -0.01990167237818241 -0.031772371381521225
0.00216366327367723 -0.021251263096928596 -0.03503673896193504
0.002406609710305929 -0.022552944719791412 -0.03823960945010185
0.0025995990727096796 -0.023926064372062683 -0.04132533073425293
0.002723678248003125 -0.02529611811041832 -0.04432864859700203
0.0027798479422926903 -0.026583503931760788 -0.04728667810559273
0.002782244235277176 -0.02779517136514187 -0.05019618198275566
0.0027508526109158993 -0.02898240834474564 -0.053033240139484406
0.0027057079132646322 -0.03019290417432785 -0.05577562004327775
0.0026627120096236467 -0.03143803030252457 -0.05841801315546036
0.002631532493978739 -0.03268652409315109 -0.060975003987550735
0.002616326557472348 -0.033892810344696045 -0.063467837870121
0.002617395017296076 -0.0350269116461277 -0.06591049581766129
0.002632583025842905 -0.0360882468521595 -0.06830325722694397
0.0026584563311189413 -0.03709544241428375 -0.07063741981983185
0.0026912044268101454 -0.038070257753133774 -0.0729028508067131
0.0027272577863186598 -0.039029091596603394 -0.0750918984413147
0.0027636769227683544 -0.0399816632270813 -0.0772000327706337
0.0027983631007373333 -0.040931444615125656 -0.07922562956809998
0.0028301344718784094 -0.041876375675201416 -0.08116964995861053
0.002858696971088648 -0.04280974715948105 -0.08303523063659668
0.002884538844227791 -0.04372137784957886 -0.08482711017131805
0.002908645896241069 -0.04459993913769722 -0.08655057847499847
0.0029320986941456795 -0.04543614387512207 -0.08820995688438416
0.002955782227218151 -0.046224769204854965 -0.08980768918991089
0.002980233170092106 -0.046965401619672775 -0.0913439691066742
0.003005585866048932 -0.04766227677464485 -0.09281681478023529
0.00303159118629992 -0.04832351207733154 -0.09422244876623154
0.0030576810240745544 -0.048959940671920776 -0.09555580466985703
0.003083063056692481 -0.04958300665020943 -0.09681156277656555
0.0031068241223692894 -0.050199683755636215 -0.09798646718263626
0.0031280354596674442 -0.05080826580524445 -0.09908130764961243
0.00314584793522954 -0.05139797180891037 -0.10010111331939697
0.0031595712061971426 -0.051951128989458084 -0.1010541319847107
0.003168734721839428 -0.052446071058511734 -0.10195045173168182
0.003173124277964235 -0.05285625159740447 -0.10280247032642365
0.003172800177708268 -0.05314908549189568 -0.10362537205219267
0.0031680921092629433 -0.05329135060310364 -0.10443464666604994
0.0031595753971487284 -0.0532577931880951 -0.10524207353591919
0.003148033283650875 -0.053039029240608215 -0.10605202615261078
0.003134404309093952 -0.05264656245708465 -0.10685914754867554
0.0031197243370115757 -0.05211388692259788 -0.10764780640602112
0.003105060663074255 -0.05149374902248383 -0.10839342325925828

CELLS 50 150
2 0 1
2 1 2
2 2 3
2 3 4
2 4 5
2 5 6
2 6 7
2 7 8
2 8 9
2 9 10
2 10 11
2 11 12
2 12 13
2 13 14
2 14 15
2 15 16
2 16 17
2 17 18
2 18 19
2 19 20
2 20 21
2 21 22
2 22 23
2 23 24
2 24 25
2 25 26
2 26 27
2 27 28
2 28 29
2 29 30
2 30 31
2 31 32
2 32 33
2 33 34
2 34 35
2 35 36
2 36 37
2 37 38
2 38 39
2 39 40
2 40 41
2 41 42
2 42 43
2 43 44
2 44 45
2 45 46
2 46 47
2 47 48
2 48 49
2 49 50

CELL_TYPES 50
4
4
4
4
4
4
4
4
4
4
4
4
4
4
4
4
4
4
4
4
4
4
4
4
4
4
4
4
4
4
4
4
4
4
4
4
4
4
4
4
4
4
4
4
4
4
4
4
4
4

POINT_DATA 51

SCALARS zone float
LOOKUP_TABLE default
1.0
1.0
1.0
1.0
1.0
1.0
1.0
1.0
1.0
1.0
1.0
1.0
1.0
1.0
1.0
1.0
1.0
1.0
1.0
1.0
1.0
1.0
1.0
1.0
1.0
1.0
1.0
1.0
1.0
1.0
1.0
1.0
1.0
1.0
1.0
1.0
1.0
1.0
1.0
1.0
1.0
1.0
1.0
1.0
1.0
1.0
1.0
1.0
1.0
1.0
1.0

VECTORS normals float
-3.124873182969168e-5 -0.0006658864440396428 -0.0019716788083314896
-7.693334191571921e-5 -0.0015472153900191188 -0.0038009774871170525
-0.0001838376629166305 -0.001847032574005425 -0.0035773350391536955
-0.0003538915771059692 -0.001994577469304204 -0.003424698254093528
-0.0004319281433708965 -0.002020031213760376 -0.003328993450850248
-0.0003430845681577921 -0.001783166779205203 -0.003355609718710184
-0.00012902190792374313 -0.0014822938246652484 -0.0034120737109333277
8.561566210119054e-5 -0.0014336116146296263 -0.003350939135998488
0.0002117376570822671 -0.00141812302172184 -0.0032743262127041817
0.00024546831264160573 -0.001325635937973857 -0.0032336181029677395
0.0002179679140681401 -0.0013374002883210778 -0.003144296817481518
0.00015853419608902186 -0.0013715868117287755 -0.003044520039111376
9.012437658384442e-5 -0.0013287195470184088 -0.0029806739185005426
2.9283044568728656e-5 -0.0012495263945311308 -0.0029337669257074594
-1.4497647498501465e-5 -0.0011994523229077458 -0.0028732814826071262
-3.826815736829303e-5 -0.0011988666374236345 -0.0027897190302610397
-4.407023516250774e-5 -0.0012278116773813963 -0.0026923862751573324
-3.708776057465002e-5 -0.0012468091445043683 -0.002599692204967141
-2.319276609341614e-5 -0.0012273886241018772 -0.0025249128229916096
-7.068673312460305e-6 -0.0011701948242262006 -0.002467747312039137
8.128289664455224e-6 -0.0010977190686389804 -0.0024177078157663345
2.053066054941155e-5 -0.0010342658497393131 -0.0023634610697627068
2.9310647732927464e-5 -0.0009910057997331023 -0.002299798186868429
3.440070213400759e-5 -0.0009668233105912805 -0.0022272393107414246
3.623620068538003e-5 -0.0009557013981975615 -0.002148590050637722
3.555265357135795e-5 -0.000951178022660315 -0.0020668639335781336
3.3228800020879135e-5 -0.0009473566897213459 -0.001984810223802924
3.0166916985763237e-5 -0.0009391513885930181 -0.0019048011163249612
2.720216980378609e-5 -0.0009225014946423471 -0.0018287296406924725
2.4974500774987977e-5 -0.0008950945339165628 -0.001757674268446863
2.3779994080541655e-5 -0.0008573827217333018 -0.0016914241714403035
2.3568165488541126e-5 -0.0008124158484861254 -0.0016285571036860347
2.406723433523439e-5 -0.0007646288140676916 -0.001567005179822445
2.4901799406507052e-5 -0.0007187537848949432 -0.0015045616310089827
2.5678929887362756e-5 -0.0006790554034523666 -0.0014392378507182002
2.604758265078999e-5 -0.0006488318904303014 -0.001369495876133442
2.573603342170827e-5 -0.0006297476938925683 -0.0012945595663040876
2.45715600613039e-5 -0.0006198713090270758 -0.0012153295101597905
2.2486185116576962e-5 -0.0006126289372332394 -0.0011348712723702192
1.951184640347492e-5 -0.0005991445505060256 -0.001057323650456965
1.5767878721817397e-5 -0.0005714319413527846 -0.0009864108869805932
1.1443358744145371e-5 -0.0005240493919700384 -0.0009246703120879829
6.776487680326682e-6 -0.000452561245765537 -0.0008741703350096941
2.0328297978267074e-6 -0.00035150640178471804 -0.0008374575409106911
-2.5160579752991907e-6 -0.00021754999761469662 -0.0008160870056599379
-6.612403467443073e-6 -5.435492130345665e-5 -0.0008083506836555898
-1.002946464723209e-5 0.00012616062304005027 -0.0008086910238489509
-1.2585563126776831e-5 0.00030561682069674134 -0.0008085374138318002
-1.4154468772176187e-5 0.0004625713336281478 -0.0007978910580277442
-1.4671891221951226e-5 0.0005764050874859095 -0.0007671371567994356
-7.331854249059689e-6 0.0003100686881225556 -0.00037280606920830905

CELL_DATA 50

VECTORS liftinglineloading               float
0.1819954812526703 0.13808783888816833 -0.05025986209511757
0.2978990077972412 0.2569465935230255 -0.09352090954780579
-0.17038175463676453 0.1111914813518524 -0.040470387786626816
0.0561056099832058 0.08635115623474121 -0.03142925351858139
0.3543873429298401 0.09884222596883774 -0.0359756276011467
-0.47950291633605957 0.4016069769859314 -0.14617298543453217
-2.194842576980591 0.9867461323738097 -0.35914623737335205
-4.0992536544799805 1.5941753387451172 -0.5802323818206787
-6.0591654777526855 2.156914472579956 -0.7850526571273804
-8.365328788757324 2.684948205947876 -0.9772412776947021
-10.89323902130127 3.202011823654175 -1.1654369831085205
-12.700549125671387 3.503282070159912 -1.2750904560089111
-13.8731050491333 3.6259379386901855 -1.3197335004806519
-14.641180038452148 3.679252386093139 -1.3391382694244385
-15.15130615234375 3.6449975967407227 -1.3266706466674805
-15.500102043151857 3.5905709266662598 -1.3068609237670898
-15.575081825256348 3.4050216674804688 -1.2393264770507812
-15.540213584899904 3.254175901412964 -1.1844232082366943
-15.645918846130371 3.120086908340454 -1.135618805885315
-15.25571060180664 2.9103713035583496 -1.059288501739502
-15.198987960815428 2.798388719558716 -1.0185301303863525
-15.29338550567627 2.702134847640991 -0.9834966659545898
-15.424224853515625 2.5701723098754883 -0.9354662299156189
-15.758838653564453 2.539863348007202 -0.9244346618652344
-16.134220123291016 2.436159372329712 -0.8866894841194153
-16.539451599121094 2.3694348335266113 -0.8624037504196168
-16.672149658203125 2.3034160137176514 -0.8383748531341554
-17.203763961791992 2.264578342437744 -0.8242390751838684
-17.601491928100586 2.190373420715332 -0.7972306609153748
-18.444583892822266 2.14148211479187 -0.7794357538223267
-18.604934692382812 2.040954828262329 -0.7428467869758606
-18.747081756591797 1.9333113431930542 -0.7036677598953247
-18.73768424987793 1.8182377815246582 -0.6617844700813293
-18.82569122314453 1.6675153970718386 -0.6069259643554688
-18.550451278686523 1.598455786705017 -0.5817903280258179
-18.227191925048828 1.4895426034927368 -0.5421491861343384
-17.819169998168945 1.4019896984100342 -0.5102825164794922
-17.071853637695312 1.3267563581466675 -0.4828998148441314
-16.379426956176758 1.288970708847046 -0.4691469669342041
-15.796826362609863 1.2392008304595947 -0.4510322511196136
-15.094337463378906 1.1936427354812622 -0.43445044755935674
-13.65317916870117 1.1158207654953003 -0.406125545501709
-11.992201805114746 1.091837763786316 -0.397396445274353
-10.076340675354004 1.1701050996780396 -0.425883412361145
-8.457083702087402 1.312741994857788 -0.47779902815818787
-6.853570461273194 1.408896803855896 -0.5127965211868286
-5.554828643798828 1.4221179485321045 -0.5176085829734802
-4.30264949798584 1.396774411201477 -0.5083843469619751
-2.9757416248321533 1.384663462638855 -0.5039762854576111
-1.661442756652832 1.4193319082260132 -0.5165945887565613