# vtk DataFile Version 4.0
 
ASCII
DATASET UNSTRUCTURED_GRID
POINTS 51 float
0.0032922609243541956 0.007402798160910606 -0.0011102537391707301
0.003229763358831405 0.010957736521959305 0.001054486376233399
0.003138394095003605 0.014659712091088293 0.002724119694903493
0.0028620881494134665 0.018386488780379295 0.0041607823222875595
0.0024306110572069883 0.02211828902363777 0.005406882148236036
0.0019982317462563515 0.025761026889085773 0.0066641937009990215
0.0017444419208914044 0.02916414849460125 0.008255579508841038
0.001740187988616526 0.03241851180791855 0.009986193850636482
0.0019156732596457005 0.035668451339006424 0.011546500958502293
0.00216366327367723 0.038800593465566635 0.01317964866757393
0.002406609710305929 0.04185650497674942 0.014796486124396322
0.0025995990727096796 0.0448918379843235 0.01627766154706478
0.002723678248003125 0.04787185788154602 0.017697684466838837
0.0027798479422926903 0.0507594384253025 0.019136151298880577
0.002782244235277176 0.05355782061815262 0.02058611437678337
0.0027508526109158993 0.05629092454910278 0.021996287629008293
0.0027057079132646322 0.058980982750654214 0.023318979889154434
0.0026627120096236467 0.06163330376148224 0.02454281784594059
0.002631532493978739 0.06423330307006836 0.02569907158613205
0.002616326557472348 0.06675974279642105 0.026833308860659596
0.002617395017296076 0.0691986232995987 0.02797550708055496
0.002632583025842905 0.07154969125986099 0.029126251116395
0.0026584563311189413 0.07382161915302277 0.030266912654042244
0.0026912044268101454 0.07602456212043762 0.03137573227286339
0.0027272577863186598 0.07816615700721741 0.0324363186955452
0.0027636769227683544 0.08025095611810684 0.03343893960118294
0.0027983631007373333 0.08228056132793427 0.03438012674450874
0.0028301344718784094 0.08425401151180267 0.03526194766163826
0.002858696971088648 0.08616818487644196 0.03609110042452812
0.002884538844227791 0.08801833540201187 0.03687777742743492
0.002908645896241069 0.0897991731762886 0.03763330355286598
0.0029320986941456795 0.09150637686252594 0.03836695849895477
0.002955782227218151 0.09313750267028809 0.03908397629857063
0.002980233170092106 0.09469235688447952 0.039784763008356094
0.003005585866048932 0.09617292135953903 0.040465082973241806
0.00303159118629992 0.09758298099040985 0.041116826236248016
0.0030576810240745544 0.0989275798201561 0.0417291522026062
0.003083063056692481 0.10021205991506577 0.042290616780519485
0.0031068241223692894 0.10143967717885971 0.042794253677129745
0.0031280354596674442 0.10260962694883347 0.04324176162481308
0.00314584793522954 0.1037168875336647 0.04364392161369324
0.0031595712061971426 0.10475321859121321 0.04401841014623642
0.003168734721839428 0.10570850968360901 0.04438689351081848
0.003173124277964235 0.10657039284706117 0.04477591812610626
0.003172800177708268 0.10732366144657135 0.04521806538105011
0.0031680921092629433 0.10795284062623976 0.04574655741453171
0.0031595753971487284 0.1084461361169815 0.04638665169477463
0.003148033283650875 0.10879918187856674 0.047147732228040695
0.003134404309093952 0.10901734232902527 0.04801829904317856
0.0031197243370115757 0.10911623388528822 0.04896484315395355
0.003105060663074255 0.10912045091390608 0.04993463307619095

CELLS 50 150
2 0 1
2 1 2
2 2 3
2 3 4
2 4 5
2 5 6
2 6 7
2 7 8
2 8 9
2 9 10
2 10 11
2 11 12
2 12 13
2 13 14
2 14 15
2 15 16
2 16 17
2 17 18
2 18 19
2 19 20
2 20 21
2 21 22
2 22 23
2 23 24
2 24 25
2 25 26
2 26 27
2 27 28
2 28 29
2 29 30
2 30 31
2 31 32
2 32 33
2 33 34
2 34 35
2 35 36
2 36 37
2 37 38
2 38 39
2 39 40
2 40 41
2 41 42
2 42 43
2 43 44
2 44 45
2 45 46
2 46 47
2 47 48
2 48 49
2 49 50

CELL_TYPES 50
4
4
4
4
4
4
4
4
4
4
4
4
4
4
4
4
4
4
4
4
4
4
4
4
4
4
4
4
4
4
4
4
4
4
4
4
4
4
4
4
4
4
4
4
4
4
4
4
4
4

POINT_DATA 51

SCALARS zone float
LOOKUP_TABLE default
1.0
1.0
1.0
1.0
1.0
1.0
1.0
1.0
1.0
1.0
1.0
1.0
1.0
1.0
1.0
1.0
1.0
1.0
1.0
1.0
1.0
1.0
1.0
1.0
1.0
1.0
1.0
1.0
1.0
1.0
1.0
1.0
1.0
1.0
1.0
1.0
1.0
1.0
1.0
1.0
1.0
1.0
1.0
1.0
1.0
1.0
1.0
1.0
1.0
1.0
1.0

VECTORS normals float
-3.124873182969168e-5 0.001777469296939671 0.0010823700577020645
-7.693334191571921e-5 0.0036284569650888443 0.0019171866588294506
-0.0001838376629166305 0.003714375663548708 0.0015531479148194194
-0.0003538915771059692 0.0037292884662747387 0.0013413813430815935
-0.0004319281433708965 0.003687269520014525 0.0012517059221863747
-0.0003430845681577921 0.0035229292698204517 0.0014243486803025007
-0.00012902190792374313 0.0033287415280938144 0.0016609999584034085
8.561566210119054e-5 0.0032521523535251617 0.0016454604919999838
0.0002117376570822671 0.0031910415273159742 0.0015967274084687233
0.00024546831264160573 0.00309402565471828 0.0016249928157776594
0.0002179679140681401 0.003045623190701008 0.0015490067889913917
0.00015853419608902186 0.0030076762195676565 0.0014505985891446471
9.012437658384442e-5 0.0029337985906749964 0.001429244177415967
2.9283044568728656e-5 0.0028429818339645863 0.00144421576987952
-1.4497647498501465e-5 0.002765743527561426 0.001430068165063858
-3.826815736829303e-5 0.0027115819975733757 0.0013664321741089225
-4.407023516250774e-5 0.0026711910031735897 0.0012732654577121139
-3.708776057465002e-5 0.002626161091029644 0.0011900464305654168
-2.319276609341614e-5 0.002563216956332326 0.0011452451581135392
-7.068673312460305e-6 0.0024826584849506617 0.001138217281550169
8.128289664455224e-6 0.0023949742317199707 0.0011464713606983423
2.053066054941155e-5 0.0023114969953894615 0.0011457030195742846
2.9310647732927464e-5 0.0022374363616108894 0.0011247412767261267
3.440070213400759e-5 0.002172271255403757 0.0010847022058442235
3.623620068538003e-5 0.0021131967660039663 0.0010316023835912347
3.555265357135795e-5 0.0020571991335600615 0.0009719040826894342
3.3228800020879135e-5 0.002001528861001134 0.0009115037973970174
3.0166916985763237e-5 0.0019438142189756038 0.0008554874220862985
2.720216980378609e-5 0.0018821619451045988 0.0008079156395979225
2.4974500774987977e-5 0.0018154934514313936 0.00077110092388466
2.3779994080541655e-5 0.00174401979893446 0.000744591117836535
2.3568165488541126e-5 0.0016691630007699134 0.0007253363146446645
2.406723433523439e-5 0.0015929911751300097 0.0007089016726240516
2.4901799406507052e-5 0.0015177108580246568 0.000690555025357753
2.5678929887362756e-5 0.001445310888811946 0.0006660317303612828
2.604758265078999e-5 0.001377328997477889 0.0006320335669443011
2.573603342170827e-5 0.00131454155780375 0.0005868960870429873
2.45715600613039e-5 0.001256047748029232 0.0005325507954694331
2.2486185116576962e-5 0.0011987821198999882 0.0004755715490318835
1.951184640347492e-5 0.0011386058758944273 0.0004248342593200504
1.5767878721817397e-5 0.0010717948898673058 0.000388325221138075
1.1443358744145371e-5 0.0009958117734640837 0.00037148609408177435
6.776487680326682e-6 0.0009085878846235573 0.0003787525638472289
2.0328297978267074e-6 0.0008075768710114062 0.000415585731389001
-2.5160579752991907e-6 0.0006912235985510051 0.00048532045911997557
-6.612403467443073e-6 0.0005612361128441989 0.0005842938553541899
-1.002946464723209e-5 0.0004231719358358532 0.0007005877560004592
-1.2585563126776831e-5 0.00028560173814184964 0.0008158222772181035
-1.4154468772176187e-5 0.00015852428623475134 0.000908555171918124
-1.4671891221951226e-5 5.155435792403296e-5 0.0009581671911291779
-7.331854249059689e-6 2.1087334971525706e-6 0.0004848943499382586

CELL_DATA 50

VECTORS liftinglineloading               float
0.08769706636667252 -0.0446438305079937 0.07732538133859634
0.0368800014257431 -0.028951942920684818 0.050146233290433884
0.02251506969332695 -0.026488224044442177 0.045878950506448746
0.21531517803668976 -0.06073545664548874 0.10519689321517943
-0.16594341397285461 -0.1409519910812378 0.2441360205411911
-1.1548858880996704 -0.3243682086467743 0.561822235584259
-2.875192642211914 -0.6168172955513 1.0683588981628418
-4.617229461669922 -0.8983508944511414 1.555989384651184
-6.377476215362549 -1.1576948165893555 2.005186080932617
-8.58871078491211 -1.4245378971099854 2.467371940612793
-10.83194637298584 -1.678373336791992 2.9070279598236084
-12.514358520507812 -1.8335689306259157 3.1758346557617188
-13.617078781127928 -1.8994736671447754 3.289984941482544
-14.350972175598145 -1.9298399686813352 3.342580795288086
-14.848146438598633 -1.9135949611663818 3.314443826675415
-15.175164222717283 -1.8851330280303957 3.265146255493164
-15.235630989074705 -1.7864366769790647 3.0941991806030273
-15.22216510772705 -1.7094628810882568 2.960876703262329
-15.266825675964355 -1.6391333341598509 2.839062213897705
-14.79286575317383 -1.525529384613037 2.642294406890869
-14.644851684570314 -1.4644811153411865 2.536555767059326
-14.756695747375488 -1.420984148979187 2.461216926574707
-14.704889297485352 -1.3408679962158203 2.322451591491699
-15.00479507446289 -1.3283376693725586 2.300748348236084
-15.392143249511717 -1.278287649154663 2.214059352874756
-15.77221393585205 -1.2457393407821655 2.157683849334717
-16.02255630493164 -1.2139004468917847 2.102537155151367
-16.588951110839844 -1.1982330083847046 2.0754003524780273
-17.036685943603516 -1.160346508026123 2.009779214859009
-17.985502243041992 -1.1378138065338135 1.9707512855529785
-18.295698165893555 -1.086265206336975 1.8814666271209717
-18.53129768371582 -1.029394268989563 1.7829632759094236
-18.66437530517578 -0.9665496945381165 1.6741131544113157
-18.880502700805664 -0.8840301036834718 1.5311850309371948
-18.712175369262695 -0.8450806736946106 1.4637227058410645
-18.47340202331543 -0.7858893871307373 1.3612003326416016
-18.130712509155273 -0.7390683889389038 1.2801040410995483
-17.42000389099121 -0.6985486149787903 1.2099217176437378
-16.7799072265625 -0.6789647936820984 1.1760014295578003
-16.07976531982422 -0.6545018553733826 1.133630394935608
-15.396614074707031 -0.6301174759864807 1.0913954973220825
-13.971794128417969 -0.5889680981636047 1.0201226472854614
-12.280570983886719 -0.5795230865478516 1.0037634372711182
-10.343900680541992 -0.6228954792022705 1.07888662815094
-8.69477653503418 -0.7031998634338379 1.2179778814315796
-7.075750350952148 -0.7551662921905518 1.3079863786697388
-5.7454681396484375 -0.7633477449417114 1.3221570253372192
-4.463020324707031 -0.7507001757621765 1.3002508878707886
-3.0941410064697266 -0.7448564767837524 1.2901291847229004
-1.7332810163497925 -0.763166069984436 1.3218424320220947