# vtk DataFile Version 4.0
 
ASCII
DATASET UNSTRUCTURED_GRID
POINTS 51 float
0.0032922609243541956 0.005855884402990341 -0.004662906751036644
0.003229763358831405 0.010016921907663345 -0.0045656561851501465
0.003138394095003605 0.014057742431759833 -0.004970699083060026
0.0028620881494134665 0.01800355687737465 -0.005589901003986597
0.0024306110572069883 0.021858440712094307 -0.006376647390425205
0.0019982317462563515 0.025641800835728645 -0.007109152153134346
0.0017444419208914044 0.029384681954979893 -0.007432532496750355
0.001740187988616526 0.033068351447582245 -0.0075609576888382435
0.0019156732596457005 0.03666303679347038 -0.0078346636146307
0.00216366327367723 0.040192123502492905 -0.007986386306583881
0.002406609710305929 0.04364703968167305 -0.008114119060337543
0.0025995990727096796 0.04701630398631096 -0.008349050767719746
0.002723678248003125 0.05030708760023117 -0.008609284646809101
0.0027798479422926903 0.053527038544416435 -0.00880732573568821
0.002782244235277176 0.0566754899919033 -0.008950811810791492
0.0027508526109158993 0.05974751338362694 -0.009096118621528149
0.0027057079132646322 0.06273852288722992 -0.009295663796365261
0.0026627120096236467 0.0656474158167839 -0.009561949409544468
0.002631532493978739 0.06847721338272095 -0.00986060407012701
0.002616326557472348 0.07123228162527084 -0.010141543112695217
0.002617395017296076 0.0739155188202858 -0.010371812619268894
0.002632583025842905 0.07652696967124939 -0.010550770908594131
0.0026584563311189413 0.07906485348939896 -0.01069889310747385
0.0026912044268101454 0.08152706921100616 -0.010840097442269325
0.0027272577863186598 0.08391203731298447 -0.01099240593612194
0.0027636769227683544 0.08621883392333984 -0.011166506446897984
0.0027983631007373333 0.08844711631536484 -0.011366217397153378
0.0028301344718784094 0.09059708565473557 -0.011589264497160912
0.002858696971088648 0.09266939014196396 -0.011828283779323101
0.002884538844227791 0.09466500580310822 -0.012072076089680195
0.002908645896241069 0.09658502042293549 -0.012308191508054733
0.0029320986941456795 0.0984303280711174 -0.012526425532996655
0.002955782227218151 0.10020142793655396 -0.012721034698188307
0.002980233170092106 0.10189836472272873 -0.012891563586890696
0.003005585866048932 0.1035207360982895 -0.013042669743299484
0.00303159118629992 0.10506775230169296 -0.013183273375034332
0.0030576810240745544 0.10653837025165559 -0.013325284235179423
0.003083063056692481 0.1079315021634102 -0.013481280766427517
0.0031068241223692894 0.10924646258354187 -0.013658926822245121
0.0031280354596674442 0.11048342287540436 -0.013856349512934686
0.00314584793522954 0.11164341866970062 -0.014061698690056799
0.0031595712061971426 0.11272814869880676 -0.01425554510205984
0.003168734721839428 0.11373969912528992 -0.014414077624678612
0.003173124277964235 0.11468062549829483 -0.014508114196360113
0.003172800177708268 0.11555404961109161 -0.014501838944852352
0.0031680921092629433 0.11636318266391754 -0.014358738437294962
0.0031595753971487284 0.11711043864488602 -0.014051048085093498
0.003148033283650875 0.11779672652482986 -0.013568456284701824
0.003134404309093952 0.11842093616724014 -0.012923603877425194
0.0031197243370115757 0.11897984892129898 -0.012153317220509052
0.003105060663074255 0.11946839839220047 -0.011315564624965191

CELLS 50 150
2 0 1
2 1 2
2 2 3
2 3 4
2 4 5
2 5 6
2 6 7
2 7 8
2 8 9
2 9 10
2 10 11
2 11 12
2 12 13
2 13 14
2 14 15
2 15 16
2 16 17
2 17 18
2 18 19
2 19 20
2 20 21
2 21 22
2 22 23
2 23 24
2 24 25
2 25 26
2 26 27
2 27 28
2 28 29
2 29 30
2 30 31
2 31 32
2 32 33
2 33 34
2 34 35
2 35 36
2 36 37
2 37 38
2 38 39
2 39 40
2 40 41
2 41 42
2 42 43
2 43 44
2 44 45
2 45 46
2 46 47
2 47 48
2 48 49
2 49 50

CELL_TYPES 50
4
4
4
4
4
4
4
4
4
4
4
4
4
4
4
4
4
4
4
4
4
4
4
4
4
4
4
4
4
4
4
4
4
4
4
4
4
4
4
4
4
4
4
4
4
4
4
4
4
4

POINT_DATA 51

SCALARS zone float
LOOKUP_TABLE default
1.0
1.0
1.0
1.0
1.0
1.0
1.0
1.0
1.0
1.0
1.0
1.0
1.0
1.0
1.0
1.0
1.0
1.0
1.0
1.0
1.0
1.0
1.0
1.0
1.0
1.0
1.0
1.0
1.0
1.0
1.0
1.0
1.0
1.0
1.0
1.0
1.0
1.0
1.0
1.0
1.0
1.0
1.0
1.0
1.0
1.0
1.0
1.0
1.0
1.0
1.0

VECTORS normals float
-3.124873182969168e-5 0.0020805185195058584 4.862529385718517e-5
-7.693334191571921e-5 0.004100929480046034 -0.00015389610780403018
-0.0001838376629166305 0.003993317484855652 -0.0005121222930029035
-0.0003538915771059692 0.0039003493729978795 -0.0007029740372672677
-0.0004319281433708965 0.0038191219791769986 -0.0007596256327815354
-0.0003430845681577921 0.003763120621442795 -0.0005279425531625748
-0.00012902190792374313 0.0037132748402655125 -0.0002259026514366269
8.561566210119054e-5 0.0036391767207533117 -0.00020106560259591788
0.0002117376570822671 0.003561886725947261 -0.00021271422156132755
0.00024546831264160573 0.0034920012112706904 -0.00013972776650916785
0.0002179679140681401 0.003412090474739671 -0.00018133236153516918
0.00015853419608902186 0.0033300232607871294 -0.0002475828805472702
9.012437658384442e-5 0.003255366114899516 -0.00022913746943231672
2.9283044568728656e-5 0.0031842023599892855 -0.00017076336371246725
-1.4497647498501465e-5 0.003110238118097186 -0.0001443964138161391
-3.826815736829303e-5 0.0030315150506794453 -0.00017242603644263
-4.407023516250774e-5 0.0029499519150704145 -0.00023291524848900735
-3.708776057465002e-5 0.0028693454805761576 -0.00028247019508853555
-2.319276609341614e-5 0.0027924336027354 -0.0002897970553021878
-7.068673312460305e-6 0.002719154115766287 -0.0002556041581556201
8.128289664455224e-6 0.0026473442558199167 -0.00020461379608605057
2.053066054941155e-5 0.0025746666360646486 -0.0001635406370041892
2.9310647732927464e-5 0.0025000472087413073 -0.00014466355787590146
3.440070213400759e-5 0.002423593308776617 -0.00014675603597424924
3.623620068538003e-5 0.002345883287489414 -0.00016320451686624438
3.555265357135795e-5 0.0022675388026982546 -0.00018690593424253166
3.3228800020879135e-5 0.0021891267970204353 -0.00021137898147571832
3.0166916985763237e-5 0.0021111362148076296 -0.00023103326384443792
2.720216980378609e-5 0.0020339577458798885 -0.00024140549066942185
2.4974500774987977e-5 0.0019578139763325453 -0.0002399537042947486
2.3779994080541655e-5 0.001882660901173949 -0.00022717508545611054
2.3568165488541126e-5 0.0018082057358697055 -0.0002064218278974295
2.406723433523439e-5 0.0017340215854346752 -0.0001825687213568017
2.4901799406507052e-5 0.0016596537316218019 -0.00016081726062111557
2.5678929887362756e-5 0.0015846918104216456 -0.00014585501048713923
2.604758265078999e-5 0.00150881870649755 -0.00014130740601103753
2.573603342170827e-5 0.0014318744651973248 -0.00014900382666382939
2.45715600613039e-5 0.001354044652543962 -0.00016682133718859404
2.2486185116576962e-5 0.0012759616365656257 -0.00018753405311144888
1.951184640347492e-5 0.0011984787415713072 -0.00020138570107519627
1.5767878721817397e-5 0.0011223643086850643 -0.00019959796918556094
1.1443358744145371e-5 0.0010481412755325437 -0.00017618948186282068
6.776487680326682e-6 0.0009762364788912237 -0.00012628459080588073
2.0328297978267074e-6 0.0009071749518625438 -4.388063098303974e-5
-2.5160579752991907e-6 0.0008412774186581374 7.468806870747358e-5
-6.612403467443073e-6 0.0007781916647218168 0.00022539529891218993
-1.002946464723209e-5 0.0007167715230025351 0.00039514084346592426
-1.2585563126776831e-5 0.0006552495178766549 0.0005637219874188304
-1.4154468772176187e-5 0.0005915636429563165 0.0007075697067193687
-1.4671891221951226e-5 0.0005237309960648417 0.0008040199754759669
-7.331854249059689e-6 0.0002442733966745436 0.000418876443291083

CELL_DATA 50

VECTORS liftinglineloading               float
0.12470298260450362 3.623030965949764e-16 0.11120450496673585
0.16509178280830383 5.556604955415175e-16 0.17055319249629974
-0.09296615421772003 1.1764730448501616e-16 0.03611040487885475
0.2369798421859741 2.820661801306387e-16 0.08657676726579666
-0.005402009002864361 7.366256436510505e-16 0.22609823942184448
-0.9642238020896913 1.9074671634816123e-15 0.5854737162590027
-2.784773111343384 3.931622856326398e-15 1.206763505935669
-4.660336017608643 5.866830984105299e-15 1.8007520437240603
-6.547520637512208 7.578897599292474e-15 2.326249837875366
-8.914691925048828 9.33564477893084e-15 2.865462064743042
-11.332673072814941 1.1022970832278139e-14 3.383366107940674
-13.081003189086912 1.1955926801701915e-14 3.6697256565093994
-14.266826629638672 1.2365736588176596e-14 3.7955117225646977
-15.043800354003906 1.2550022158378926e-14 3.8520760536193848
-15.571473121643066 1.2472127314483524e-14 3.828166961669922
-16.004657745361328 1.2346858764881138e-14 3.789717197418213
-16.09930419921875 1.1787695893981844e-14 3.618088960647583
-16.13431739807129 1.1304828668773532e-14 3.4698789119720455
-16.16439437866211 1.0788330000394489e-14 3.311346054077148
-15.73845386505127 1.0078545189715592e-14 3.0934863090515137
-15.601898193359377 9.67782067863316e-15 2.9704887866973877
-15.491508483886717 9.277855109071469e-15 2.847724437713623
-15.59482955932617 8.858901601931177e-15 2.7191317081451416
-15.807337760925293 8.728761765849132e-15 2.6791868209838867
-16.08235740661621 8.359220772719868e-15 2.565760612487793
-16.437971115112305 8.130078878729793e-15 2.4954283237457275
-16.760879516601562 7.931478451718866e-15 2.4344701766967773
-17.308910369873047 7.791651099819073e-15 2.391551971435547
-17.772855758666992 7.539624916693029e-15 2.3141956329345703
-18.694766998291016 7.360187763080783e-15 2.2591195106506348
-18.928937911987305 6.995637911593214e-15 2.1472253799438477
-19.105871200561523 6.610367516633438e-15 2.0289716720581055
-19.186819076538086 6.19299542000567e-15 1.900864362716675
-19.3983154296875 5.653356658540587e-15 1.7352287769317627
-19.188520431518555 5.406158139697418e-15 1.6593542098999021
-18.92169761657715 5.033708858943756e-15 1.5450353622436523
-18.584306716918945 4.7409814721527214e-15 1.4551862478256226
-17.833354949951172 4.486627642487622e-15 1.3771154880523682
-17.189542770385742 4.370606575086885e-15 1.3415043354034424
-16.495943069458008 4.218149538427057e-15 1.2947094440460205
-15.789811134338379 4.063190789957514e-15 1.2471468448638916
-14.360859870910645 3.800756689492082e-15 1.1665958166122437
-12.636055946350098 3.7665738278726876e-15 1.1561037302017212
-10.681757926940918 4.0622001849257e-15 1.2468427419662476
-9.015584945678711 4.618246398095573e-15 1.4175143241882324
-7.401430606842041 4.964906066704184e-15 1.5239171981811523
-6.05748987197876 5.031279144934557e-15 1.5442895889282227
-4.761504173278809 4.961280342173462e-15 1.5228043794631958
-3.352554559707642 4.935444143216311e-15 1.5148743391036987
-1.9202706813812258 5.061089622480225e-15 1.5534396171569824