# vtk DataFile Version 4.0
 
ASCII
DATASET UNSTRUCTURED_GRID
POINTS 51 float
0.0032922609243541956 -0.006576625630259513 0.0035752032417804
0.003229763358831405 -0.01065756008028984 0.0027568736113607883
0.003138394095003605 -0.014707326889038086 0.0024540815502405167
0.0028620881494134665 -0.018700718879699707 0.0023786930833011866
0.0024306110572069883 -0.02263365499675274 0.002484093187376857
0.0019982317462563515 -0.02648673579096794 0.00254849623888731
0.0017444419208914044 -0.030228909105062485 0.0022170187439769506
0.001740187988616526 -0.03387891501188278 0.0017038309015333652
0.0019156732596457005 -0.037466518580913544 0.0013491678982973099
0.00216366327367723 -0.040968336164951324 0.0008857658249326049
0.002406609710305929 -0.044392943382263184 0.0004116185300517828
0.0025995990727096796 -0.04775181785225868 5.7914254284696653e-5
0.002723678248003125 -0.05103779584169387 -0.0002572433731984347
0.0027798479422926903 -0.05424321815371513 -0.0006213498418219388
0.002782244235277176 -0.05736875534057618 -0.001026767073199153
0.0027508526109158993 -0.060419339686632156 -0.0014171188231557608
0.0027057079132646322 -0.0633995532989502 -0.001739988219924271
0.0026627120096236467 -0.06631050258874893 -0.0019828728400170803
0.002631532493978739 -0.06914916634559631 -0.0021801437251269817
0.002616326557472348 -0.07191116362810135 -0.0023818861227482557
0.002617395017296076 -0.07459362596273422 -0.00262105418369174
0.002632583025842905 -0.07719647884368896 -0.00289828865788877
0.0026584563311189413 -0.07972152531147003 -0.003193114418536425
0.0026912044268101454 -0.08217085152864456 -0.0034816141705960035
0.0027272577863186598 -0.0845460370182991 -0.00374576635658741
0.0027636769227683544 -0.08684802055358887 -0.003974881023168564
0.0027983631007373333 -0.08907712996006012 -0.004165141377598047
0.0028301344718784094 -0.09123317152261734 -0.004318821243941784
0.002858696971088648 -0.093315489590168 -0.004443284589797258
0.002884538844227791 -0.0953231230378151 -0.004549731500446796
0.002908645896241069 -0.09725496917963028 -0.0046506100334227085
0.0029320986941456795 -0.09911014139652252 -0.004756125155836344
0.002955782227218151 -0.10088812559843063 -0.0048720212653279305
0.002980233170092106 -0.10258889943361282 -0.004998754244297743
0.003005585866048932 -0.10421285778284073 -0.005131665151566267
0.00303159118629992 -0.10576079040765762 -0.005261833779513836
0.0030576810240745544 -0.10723372548818588 -0.005377350840717554
0.003083063056692481 -0.10863278061151505 -0.005465638358145952
0.0031068241223692894 -0.10995861142873765 -0.005519032012671232
0.0031280354596674442 -0.11121106147766113 -0.005539405159652233
0.00314584793522954 -0.11238909512758255 -0.0055386065505445
0.0031595712061971426 -0.1134910061955452 -0.005536066833883524
0.003168734721839428 -0.11451471596956252 -0.0055555966682732105
0.003173124277964235 -0.1154576763510704 -0.0056263781152665615
0.003172800177708268 -0.11631674319505693 -0.005784227512776852
0.0031680921092629433 -0.11708872765302657 -0.006065657362341881
0.0031595753971487284 -0.1177712008357048 -0.006498432718217374
0.003148033283650875 -0.11836326122283936 -0.0070928651839494705
0.003134404309093952 -0.11886601150035858 -0.007836313918232918
0.0031197243370115757 -0.11928267776966094 -0.008691953495144844
0.003105060663074255 -0.11961833387613297 -0.009601813741028309

CELLS 50 150
2 0 1
2 1 2
2 2 3
2 3 4
2 4 5
2 5 6
2 6 7
2 7 8
2 8 9
2 9 10
2 10 11
2 11 12
2 12 13
2 13 14
2 14 15
2 15 16
2 16 17
2 17 18
2 18 19
2 19 20
2 20 21
2 21 22
2 22 23
2 23 24
2 24 25
2 25 26
2 26 27
2 27 28
2 28 29
2 29 30
2 30 31
2 31 32
2 32 33
2 33 34
2 34 35
2 35 36
2 36 37
2 37 38
2 38 39
2 39 40
2 40 41
2 41 42
2 42 43
2 43 44
2 44 45
2 45 46
2 46 47
2 47 48
2 48 49
2 49 50

CELL_TYPES 50
4
4
4
4
4
4
4
4
4
4
4
4
4
4
4
4
4
4
4
4
4
4
4
4
4
4
4
4
4
4
4
4
4
4
4
4
4
4
4
4
4
4
4
4
4
4
4
4
4
4

POINT_DATA 51

SCALARS zone float
LOOKUP_TABLE default
1.0
1.0
1.0
1.0
1.0
1.0
1.0
1.0
1.0
1.0
1.0
1.0
1.0
1.0
1.0
1.0
1.0
1.0
1.0
1.0
1.0
1.0
1.0
1.0
1.0
1.0
1.0
1.0
1.0
1.0
1.0
1.0
1.0
1.0
1.0
1.0
1.0
1.0
1.0
1.0
1.0
1.0
1.0
1.0
1.0
1.0
1.0
1.0
1.0
1.0
1.0

VECTORS normals float
-3.124873182969168e-5 -0.0020404672250151634 -0.00040916484431363637
-7.693334191571921e-5 -0.004065350629389286 -0.0005605608457699418
-0.0001838376629166305 -0.004021579399704933 -0.00018909030768554658
-0.0003538915771059692 -0.003963164519518614 1.5005713066784665e-5
-0.0004319281433708965 -0.0038930084556341176 8.490165055263788e-5
-0.0003430845681577921 -0.0037976265884935856 -0.0001335371343884617
-0.00012902190792374313 -0.0036960893776267767 -0.0004223327268846333
8.561566210119054e-5 -0.0036188042722642417 -0.00043392545194365084
0.0002117376570822671 -0.003544711042195558 -0.0004090325383003801
0.00024546831264160573 -0.0034632133319973946 -0.0004687746695708483
0.0002179679140681401 -0.0033917410764843225 -0.00041392576531507075
0.00015853419608902186 -0.003322425065562129 -0.0003344309516251087
9.012437658384442e-5 -0.003245699219405651 -0.0003396320389583707
2.9283044568728656e-5 -0.003165479749441147 -0.0003847618354484439
-1.4497647498501465e-5 -0.0030880607664585114 -0.000397884490666911
-3.826815736829303e-5 -0.003015400841832161 -0.0003566105442587286
-4.407023516250774e-5 -0.002945580752566457 -0.00028287703753449023
-3.708776057465002e-5 -0.0028748041950166225 -0.0002200777817051858
-2.319276609341614e-5 -0.002800332847982645 -0.00019950659770984203
-7.068673312460305e-6 -0.0027222291100770235 -0.00022045518562663347
8.128289664455224e-6 -0.0026426559779793024 -0.00025820123846642673
2.053066054941155e-5 -0.0025639503728598356 -0.00028603008831851184
2.9310647732927464e-5 -0.002487186575308442 -0.0002916628436651081
3.440070213400759e-5 -0.002412257483229041 -0.00027632605633698404
3.623620068538003e-5 -0.002338584279641509 -0.00024663328076712787
3.555265357135795e-5 -0.002265545539557934 -0.00020968756871297956
3.3228800020879135e-5 -0.002192574553191662 -0.0001719701976981014
3.0166916985763237e-5 -0.0021191819105297327 -0.00013907160609960556
2.720216980378609e-5 -0.002044977154582739 -0.00011545507004484534
2.4974500774987977e-5 -0.001969737932085991 -0.00010366253991378471
2.3779994080541655e-5 -0.0018935076659545305 -0.00010319686407456176
2.3568165488541126e-5 -0.0018165797227993608 -0.00011070580512750894
2.406723433523439e-5 -0.0017393806483596561 -0.00012131460971431807
2.4901799406507052e-5 -0.0016623653937131166 -0.0001298217539442703
2.5678929887362756e-5 -0.0015859442064538598 -0.0001315396948484704
2.604758265078999e-5 -0.0015104340855032206 -0.00012284299009479582
2.573603342170827e-5 -0.0014359952183440328 -0.00010190225293627007
2.45715600613039e-5 -0.0013624419225379825 -7.08404477336444e-5
2.2486185116576962e-5 -0.0012891418300569057 -3.688341530505568e-5
1.951184640347492e-5 -0.0012152415001764894 -9.787460840016138e-6
1.5767878721817397e-5 -0.0011399728246033192 1.6691187738615552e-6
1.1443358744145371e-5 -0.001062812632881105 -8.495059773849789e-6
6.776487680326682e-6 -0.0009833343792706728 -4.515563341556117e-5
2.0328297978267074e-6 -0.0009010126814246177 -0.0001143152912845835
-2.5160579752991907e-6 -0.0008155270479619503 -0.00021963968174532056
-6.612403467443073e-6 -0.0007272296934388578 -0.0003571026027202606
-1.002946464723209e-5 -0.0006372666684910655 -0.000513603852596134
-1.2585563126776831e-5 -0.0005474055069498718 -0.0006689406582154334
-1.4154468772176187e-5 -0.00045970824430696666 -0.0007995440391823649
-1.4671891221951226e-5 -0.0003761577245313674 -0.0008827500278130173
-7.331854249059689e-6 -0.0001678251865087077 -0.00045493041398003703

CELL_DATA 50

VECTORS liftinglineloading               float
0.13032452762126923 0.020032761618494987 -0.11361143738031387
0.18226368725299835 0.03212302550673485 -0.18217872083187103
-0.10050221532583237 0.006981975864619017 -0.03959675133228302
0.2283816486597061 0.014873992651700975 -0.08435460180044174
0.030218923464417454 0.03760144114494324 -0.2132483720779419
-0.8665264248847961 0.0963287204504013 -0.5463073253631592
-2.6427388191223145 0.20315146446228025 -1.1521292924880981
-4.495317459106445 0.30743640661239624 -1.743558406829834
-6.363532066345215 0.4012899100780487 -2.2758281230926514
-8.909214973449707 0.4999365210533142 -2.8352808952331543
-11.320670127868652 0.589888334274292 -3.3454229831695557
-13.061814308166506 0.6399199366569519 -3.6291663646698002
-14.226887702941893 0.661474883556366 -3.751410722732544
-14.978667259216309 0.6710097193717957 -3.805485248565674
-15.477341651916502 0.6661630868911743 -3.7779986858367915
-15.864772796630858 0.6584962010383606 -3.7345175743103027
-15.975074768066408 0.6280257105827332 -3.561710834503174
-16.0164852142334 0.6022151112556458 -3.415331602096558
-16.044343948364258 0.5750163793563843 -3.2610800266265865
-15.596342086791992 0.5366722345352173 -3.0436196327209473
-15.441479682922363 0.5151035189628601 -2.921297311782837
-15.359423637390138 0.49470967054367065 -2.805638074874878
-15.43111801147461 0.4712906777858734 -2.6728222370147705
-15.665121078491211 0.4648546576499939 -2.636321783065796
-15.97139835357666 0.4455921351909638 -2.527078628540039
-16.301733016967773 0.43321630358695984 -2.4568917751312256
-16.624897003173828 0.4226378202438354 -2.3968982696533203
-17.182212829589844 0.415594607591629 -2.3569540977478027
-17.64237403869629 0.40222278237342834 -2.281118869781494
-18.56490707397461 0.39300015568733215 -2.2288146018981934
-18.869342803955078 0.373607337474823 -2.118832588195801
-19.045196533203125 0.35317301750183105 -2.002943754196167
-19.127456665039062 0.3309865891933441 -1.8771182298660276
-19.337430953979492 0.3022300601005554 -1.7140319347381592
-19.133872985839844 0.28898322582244873 -1.6389052867889404
-18.874608993530273 0.2689914405345917 -1.5255262851715088
-18.494232177734375 0.25363561511039734 -1.438439130783081
-17.74859046936035 0.23997071385383606 -1.3609415292739868
-17.10248565673828 0.23366016149520874 -1.3251526355743408
-16.404569625854492 0.22545784711837766 -1.278635025024414
-15.70126724243164 0.217152401804924 -1.2315324544906616
-14.271466255187988 0.20308963954448697 -1.1517785787582397
-12.552867889404297 0.20092131197452545 -1.1394814252853394
-10.601115226745605 0.21652023494243622 -1.2279472351074219
-8.9375 0.24576468765735626 -1.3938008546829224
-7.320524215698242 0.26415306329727173 -1.4980864524841309
-5.977780818939209 0.267532616853714 -1.5172529220581055
-4.682332992553711 0.2636477053165436 -1.4952203035354614
-3.280044317245484 0.26211416721343994 -1.4865232706069946
-1.8636542558670044 0.26872140169143677 -1.52399480342865