# vtk DataFile Version 4.0
 
ASCII
DATASET UNSTRUCTURED_GRID
POINTS 51 float
0.0032922609243541956 -0.007336083799600601 -0.0014886087737977505
0.003229763358831405 -0.009936248883605003 -0.004738659597933292
0.003138394095003605 -0.012843918986618519 -0.007573751732707024
0.0028620881494134665 -0.015854576602578163 -0.010198405012488365
0.0024306110572069883 -0.018935130909085274 -0.012645707465708256
0.0019982317462563515 -0.021928157657384872 -0.015073084272444248
0.0017444419208914044 -0.02458176016807556 -0.01773243397474289
0.001740187988616526 -0.027047954499721527 -0.020471736788749695
0.0019156732596457005 -0.029568245634436607 -0.02304949052631855
0.00216366327367723 -0.03195292502641678 -0.02565540373325348
0.002406609710305929 -0.03427155315876007 -0.028219915926456455
0.0025995990727096796 -0.03661724179983139 -0.03064991347491741
0.002723678248003125 -0.038931865245103836 -0.03300352022051811
0.0027798479422926903 -0.04115331918001175 -0.03534284979104996
0.002782244235277176 -0.04328702390193939 -0.03766247257590294
0.0027508526109158993 -0.045372992753982544 -0.039922378957271576
0.0027057079132646322 -0.04744843393564224 -0.04208535701036453
0.0026627120096236467 -0.04952222481369972 -0.04414253681898117
0.002631532493978739 -0.05156996473670005 -0.04611831158399582
0.002616326557472348 -0.05355610325932503 -0.048048235476017
0.002617395017296076 -0.05545724928379059 -0.04995569959282875
0.002632583025842905 -0.05727294832468033 -0.051841158419847495
0.0026584563311189413 -0.05901773646473885 -0.05369007587432861
0.0026912044268101454 -0.06070858612656593 -0.05548547580838204
0.0027272577863186598 -0.06235828995704651 -0.05721456930041313
0.0027636769227683544 -0.06397444009780884 -0.05886976793408394
0.0027983631007373333 -0.0655597373843193 -0.06044835969805717
0.0028301344718784094 -0.06711257994174957 -0.06195195764303208
0.002858696971088648 -0.06862773001194 -0.06338579952716827
0.002884538844227791 -0.07009723782539368 -0.0647578164935112
0.002908645896241069 -0.07151227444410324 -0.06607685983181
0.0029320986941456795 -0.07286559045314789 -0.06735017150640488
0.002955782227218151 -0.0741531178355217 -0.06858182698488235
0.002980233170092106 -0.07537452131509781 -0.0697721391916275
0.003005585866048932 -0.07653310894966125 -0.07091781497001648
0.00303159118629992 -0.07763522118330002 -0.0720125213265419
0.0030576810240745544 -0.07868930697441101 -0.07304780185222626
0.003083063056692481 -0.07970429211854935 -0.07401472330093384
0.0031068241223692894 -0.08068561553955078 -0.07490785419940948
0.0031280354596674442 -0.08163195848464966 -0.07572852075099945
0.00314584793522954 -0.08253489434719086 -0.07648513466119766
0.0031595712061971426 -0.08338063955307007 -0.07719148695468903
0.003168734721839428 -0.08415229618549347 -0.07786447554826736
0.003173124277964235 -0.08482914417982101 -0.07852482050657272
0.003172800177708268 -0.0853857696056366 -0.07919793576002121
0.0031680921092629433 -0.08579624444246292 -0.07990974932909012
0.0031595753971487284 -0.08604086190462112 -0.08067996054887772
0.003148033283650875 -0.08611231297254562 -0.08151588588953018
0.003134404309093952 -0.08601956814527512 -0.08240856975317001
0.0031197243370115757 -0.08578875660896301 -0.08333185315132141
0.003105060663074255 -0.08546102792024612 -0.08424459397792816

CELLS 50 150
2 0 1
2 1 2
2 2 3
2 3 4
2 4 5
2 5 6
2 6 7
2 7 8
2 8 9
2 9 10
2 10 11
2 11 12
2 12 13
2 13 14
2 14 15
2 15 16
2 16 17
2 17 18
2 18 19
2 19 20
2 20 21
2 21 22
2 22 23
2 23 24
2 24 25
2 25 26
2 26 27
2 27 28
2 28 29
2 29 30
2 30 31
2 31 32
2 32 33
2 33 34
2 34 35
2 35 36
2 36 37
2 37 38
2 38 39
2 39 40
2 40 41
2 41 42
2 42 43
2 43 44
2 44 45
2 45 46
2 46 47
2 47 48
2 48 49
2 49 50

CELL_TYPES 50
4
4
4
4
4
4
4
4
4
4
4
4
4
4
4
4
4
4
4
4
4
4
4
4
4
4
4
4
4
4
4
4
4
4
4
4
4
4
4
4
4
4
4
4
4
4
4
4
4
4

POINT_DATA 51

SCALARS zone float
LOOKUP_TABLE default
1.0
1.0
1.0
1.0
1.0
1.0
1.0
1.0
1.0
1.0
1.0
1.0
1.0
1.0
1.0
1.0
1.0
1.0
1.0
1.0
1.0
1.0
1.0
1.0
1.0
1.0
1.0
1.0
1.0
1.0
1.0
1.0
1.0
1.0
1.0
1.0
1.0
1.0
1.0
1.0
1.0
1.0
1.0
1.0
1.0
1.0
1.0
1.0
1.0
1.0
1.0

VECTORS normals float
-3.124873182969168e-5 -0.0013000824255868793 -0.0016250254120677712
-7.693334191571921e-5 -0.0027539178263396025 -0.0030425714794546366
-0.0001838376629166305 -0.0029591636266559362 -0.00272987294010818
-0.0003538915771059692 -0.00304560549557209 -0.002535977866500616
-0.0004319281433708965 -0.0030367912258952856 -0.002437339164316654
-0.0003430845681577921 -0.0028233148623257875 -0.0025433627888560295
-0.00012902190792374313 -0.0025598984211683273 -0.0026993260253220797
8.561566210119054e-5 -0.0024932429660111666 -0.0026585287414491177
0.0002117376570822671 -0.0024524852633476257 -0.002591833472251892
0.00024546831264160573 -0.002351652830839157 -0.0025852129328995943
0.0002179679140681401 -0.0023321581538766623 -0.0024972546380013227
0.00015853419608902186 -0.002330157207325101 -0.0023918026126921177
9.012437658384442e-5 -0.002268038457259536 -0.0023464683908969164
2.9283044568728656e-5 -0.0021775781642645597 -0.0023294759448617697
-1.4497647498501465e-5 -0.0021098365541547537 -0.0022897643502801657
-3.826815736829303e-5 -0.0020807061810046434 -0.0022114417515695095
-4.407023516250774e-5 -0.002074616029858589 -0.002110079163685441
-3.708776057465002e-5 -0.002060764469206333 -0.0020164777524769306
-2.319276609341614e-5 -0.002016938989982009 -0.0019528502598404884
-7.068673312460305e-6 -0.0019436427392065523 -0.0019186936551705005
8.128289664455224e-6 -0.0018584233475849032 -0.0018964600749313833
2.053066054941155e-5 -0.0017802432412281635 -0.0018671872094273567
2.9310647732927464e-5 -0.0017178180860355499 -0.001822159392759204
3.440070213400759e-5 -0.0016702773282304408 -0.0017622471787035465
3.623620068538003e-5 -0.0016329266363754869 -0.0016921450151130557
3.555265357135795e-5 -0.0016007240628823638 -0.0016168946167454123
3.3228800020879135e-5 -0.0015690692234784365 -0.0015410964842885733
3.0166916985763237e-5 -0.001533993985503912 -0.0014687188668176532
2.720216980378609e-5 -0.001492330222390592 -0.0014029296580702066
2.4974500774987977e-5 -0.001442273729480803 -0.0013455331791192293
2.3779994080541655e-5 -0.0013841773616150022 -0.0012961766915395856
2.3568165488541126e-5 -0.0013204205315560102 -0.001252480549737811
2.406723433523439e-5 -0.0012544633354991674 -0.0012109847739338875
2.4901799406507052e-5 -0.0011899980017915368 -0.0011679971357807517
2.5678929887362756e-5 -0.0011303516803309321 -0.00112019048538059
2.604758265078999e-5 -0.0010780977318063378 -0.0010649915784597397
2.573603342170827e-5 -0.0010345346527174115 -0.0010011015692725778
2.45715600613039e-5 -0.0009981556795537472 -0.0009300276869907976
2.2486185116576962e-5 -0.0009638317278586328 -0.0008568987250328064
1.951184640347492e-5 -0.0009246377157978712 -0.0007886397652328014
1.5767878721817397e-5 -0.0008743427461013198 -0.0007314818212762475
1.1443358744145371e-5 -0.0008087012101896107 -0.0006896703853271902
6.776487680326682e-6 -0.000724252313375473 -0.0006666663684882224
2.0328297978267074e-6 -0.0006167353130877018 -0.0006667303969152272
-2.5160579752991907e-6 -0.0004835483268834651 -0.0006924644694663584
-6.612403467443073e-6 -0.00032754914718680084 -0.0007410107064060867
-1.002946464723209e-5 -0.00015803641872480512 -0.0008030704921111465
-1.2585563126776831e-5 1.0649802788975649e-5 -0.0008643037290312349
-1.4154468772176187e-5 0.00016178005898837 -0.0009079810697585345
-1.4671891221951226e-5 0.00027926723123528063 -0.0009180153138004243
-7.331854249059689e-6 0.0001638620742596686 -0.0004563728580251336

CELL_DATA 50

VECTORS liftinglineloading               float
0.08913000673055649 0.06898002326488495 -0.05788110941648483
0.04380699247121811 0.04995254427194595 -0.041915163397789
0.013825691305100916 0.03748254477977753 -0.03145159035921097
0.2216811776161194 0.09048870950937271 -0.07592904567718506
-0.15642711520195007 0.21292902529239655 -0.17866866290569305
-1.1403098106384277 0.49278020858764643 -0.41349169611930847
-2.8670222759246826 0.9424086809158324 -0.7907747626304626
-4.618040561676025 1.3749070167541504 -1.1536840200424194
-6.386961936950684 1.7720646858215332 -1.4869388341903687
-8.61032485961914 2.181133985519409 -1.8301886320114136
-10.86711597442627 2.5709424018859863 -2.1572768688201904
-12.552262306213379 2.8071913719177246 -2.355513334274292
-13.660805702209473 2.9081389904022217 -2.440218448638916
-14.397158622741701 2.9549672603607178 -2.4795119762420654
-14.896017074584961 2.930974245071411 -2.4593794345855713
-15.231228828430174 2.8888840675354004 -2.4240615367889404
-15.295445442199707 2.739321708679199 -2.2985637187957764
-15.287640571594238 2.621910572052002 -2.2000441551208496
-15.33446502685547 2.513356924057007 -2.108956813812256
-14.86857509613037 2.3401052951812744 -1.9635814428329468
-14.7257661819458 2.2467448711395264 -1.8852427005767822
-14.819958686828613 2.177661657333374 -1.8272751569747925
-14.78103828430176 2.0570240020751953 -1.7260481119155882
-15.066747665405273 2.036565065383911 -1.7088810205459595
-15.432847023010254 1.9586610794067385 -1.643511772155762
-15.792462348937988 1.9081507921218872 -1.6011285781860352
-16.015905380249023 1.8588621616363525 -1.5597705841064453
-16.54410171508789 1.8345022201538086 -1.5393301248550415
-16.94331932067871 1.7762616872787476 -1.4904605150222778
-17.839401245117188 1.7427817583084106 -1.4623675346374512
-18.12592124938965 1.6654909849166868 -1.3975129127502441
-18.325908660888672 1.5804892778396606 -1.3261879682540894
-18.353910446166992 1.4885562658309937 -1.249047040939331
-18.54604721069336 1.364057183265686 -1.1445798873901367
-18.377965927124023 1.3050411939620972 -1.0950596332550049
-18.136537551879883 1.2138738632202148 -1.0185611248016357
-17.789188385009766 1.1409478187561035 -0.9573689103126526
-17.09919548034668 1.0782383680343628 -0.9047493934631348
-16.458988189697266 1.0468376874923706 -0.8784011602401732
-15.755815505981445 1.0085479021072388 -0.8462721705436707
-15.095539093017576 0.9708498120307923 -0.814639687538147
-13.682735443115234 0.9071850776672364 -0.7612186670303345
-12.032707214355469 0.8884480595588684 -0.7454964518547058
-10.121105194091797 0.9527503848075868 -0.7994524836540222
-8.499942779541016 1.0705249309539795 -0.8982771039009095
-6.895457744598389 1.1491550207138062 -0.9642555713653564
-5.590424537658691 1.1603153944015503 -0.9736201763153075
-4.331885814666748 1.1399096250534058 -0.9564977288246155
-2.9964613914489746 1.130153775215149 -0.9483116269111633
-1.673520803451538 1.1582144498825073 -0.9718573689460754