# vtk DataFile Version 4.0
 
ASCII
DATASET UNSTRUCTURED_GRID
POINTS 51 float
0.0032922609243541956 0.006576625630259513 -0.0035752032417804
0.003229763358831405 0.01065756008028984 -0.0027568736113607883
0.003138394095003605 0.014707326889038086 -0.0024540815502405167
0.0028620881494134665 0.018700718879699707 -0.0023786930833011866
0.0024306110572069883 0.02263365499675274 -0.002484093187376857
0.0019982317462563515 0.02648673579096794 -0.00254849623888731
0.0017444419208914044 0.030228909105062485 -0.0022170187439769506
0.001740187988616526 0.03387891501188278 -0.0017038309015333652
0.0019156732596457005 0.037466518580913544 -0.0013491678982973099
0.00216366327367723 0.040968336164951324 -0.0008857658249326049
0.002406609710305929 0.044392943382263184 -0.0004116185300517828
0.0025995990727096796 0.04775181785225868 -5.7914254284696653e-5
0.002723678248003125 0.05103779584169387 0.0002572433731984347
0.0027798479422926903 0.05424321815371513 0.0006213498418219388
0.002782244235277176 0.05736875534057618 0.001026767073199153
0.0027508526109158993 0.060419339686632156 0.0014171188231557608
0.0027057079132646322 0.0633995532989502 0.001739988219924271
0.0026627120096236467 0.06631050258874893 0.0019828728400170803
0.002631532493978739 0.06914916634559631 0.0021801437251269817
0.002616326557472348 0.07191116362810135 0.0023818861227482557
0.002617395017296076 0.07459362596273422 0.00262105418369174
0.002632583025842905 0.07719647884368896 0.00289828865788877
0.0026584563311189413 0.07972152531147003 0.003193114418536425
0.0026912044268101454 0.08217085152864456 0.0034816141705960035
0.0027272577863186598 0.0845460370182991 0.00374576635658741
0.0027636769227683544 0.08684802055358887 0.003974881023168564
0.0027983631007373333 0.08907712996006012 0.004165141377598047
0.0028301344718784094 0.09123317152261734 0.004318821243941784
0.002858696971088648 0.093315489590168 0.004443284589797258
0.002884538844227791 0.0953231230378151 0.004549731500446796
0.002908645896241069 0.09725496917963028 0.0046506100334227085
0.0029320986941456795 0.09911014139652252 0.004756125155836344
0.002955782227218151 0.10088812559843063 0.0048720212653279305
0.002980233170092106 0.10258889943361282 0.004998754244297743
0.003005585866048932 0.10421285778284073 0.005131665151566267
0.00303159118629992 0.10576079040765762 0.005261833779513836
0.0030576810240745544 0.10723372548818588 0.005377350840717554
0.003083063056692481 0.10863278061151505 0.005465638358145952
0.0031068241223692894 0.10995861142873765 0.005519032012671232
0.0031280354596674442 0.11121106147766113 0.005539405159652233
0.00314584793522954 0.11238909512758255 0.0055386065505445
0.0031595712061971426 0.1134910061955452 0.005536066833883524
0.003168734721839428 0.11451471596956252 0.0055555966682732105
0.003173124277964235 0.1154576763510704 0.0056263781152665615
0.003172800177708268 0.11631674319505693 0.005784227512776852
0.0031680921092629433 0.11708872765302657 0.006065657362341881
0.0031595753971487284 0.1177712008357048 0.006498432718217374
0.003148033283650875 0.11836326122283936 0.0070928651839494705
0.003134404309093952 0.11886601150035858 0.007836313918232918
0.0031197243370115757 0.11928267776966094 0.008691953495144844
0.003105060663074255 0.11961833387613297 0.009601813741028309

CELLS 50 150
2 0 1
2 1 2
2 2 3
2 3 4
2 4 5
2 5 6
2 6 7
2 7 8
2 8 9
2 9 10
2 10 11
2 11 12
2 12 13
2 13 14
2 14 15
2 15 16
2 16 17
2 17 18
2 18 19
2 19 20
2 20 21
2 21 22
2 22 23
2 23 24
2 24 25
2 25 26
2 26 27
2 27 28
2 28 29
2 29 30
2 30 31
2 31 32
2 32 33
2 33 34
2 34 35
2 35 36
2 36 37
2 37 38
2 38 39
2 39 40
2 40 41
2 41 42
2 42 43
2 43 44
2 44 45
2 45 46
2 46 47
2 47 48
2 48 49
2 49 50

CELL_TYPES 50
4
4
4
4
4
4
4
4
4
4
4
4
4
4
4
4
4
4
4
4
4
4
4
4
4
4
4
4
4
4
4
4
4
4
4
4
4
4
4
4
4
4
4
4
4
4
4
4
4
4

POINT_DATA 51

SCALARS zone float
LOOKUP_TABLE default
1.0
1.0
1.0
1.0
1.0
1.0
1.0
1.0
1.0
1.0
1.0
1.0
1.0
1.0
1.0
1.0
1.0
1.0
1.0
1.0
1.0
1.0
1.0
1.0
1.0
1.0
1.0
1.0
1.0
1.0
1.0
1.0
1.0
1.0
1.0
1.0
1.0
1.0
1.0
1.0
1.0
1.0
1.0
1.0
1.0
1.0
1.0
1.0
1.0
1.0
1.0

VECTORS normals float
-3.124873182969168e-5 0.0020404672250151634 0.00040916484431363637
-7.693334191571921e-5 0.004065350629389286 0.0005605608457699418
-0.0001838376629166305 0.004021579399704933 0.00018909030768554658
-0.0003538915771059692 0.003963164519518614 -1.5005713066784665e-5
-0.0004319281433708965 0.0038930084556341176 -8.490165055263788e-5
-0.0003430845681577921 0.0037976265884935856 0.0001335371343884617
-0.00012902190792374313 0.0036960893776267767 0.0004223327268846333
8.561566210119054e-5 0.0036188042722642417 0.00043392545194365084
0.0002117376570822671 0.003544711042195558 0.0004090325383003801
0.00024546831264160573 0.0034632133319973946 0.0004687746695708483
0.0002179679140681401 0.0033917410764843225 0.00041392576531507075
0.00015853419608902186 0.003322425065562129 0.0003344309516251087
9.012437658384442e-5 0.003245699219405651 0.0003396320389583707
2.9283044568728656e-5 0.003165479749441147 0.0003847618354484439
-1.4497647498501465e-5 0.0030880607664585114 0.000397884490666911
-3.826815736829303e-5 0.003015400841832161 0.0003566105442587286
-4.407023516250774e-5 0.002945580752566457 0.00028287703753449023
-3.708776057465002e-5 0.0028748041950166225 0.0002200777817051858
-2.319276609341614e-5 0.002800332847982645 0.00019950659770984203
-7.068673312460305e-6 0.0027222291100770235 0.00022045518562663347
8.128289664455224e-6 0.0026426559779793024 0.00025820123846642673
2.053066054941155e-5 0.0025639503728598356 0.00028603008831851184
2.9310647732927464e-5 0.002487186575308442 0.0002916628436651081
3.440070213400759e-5 0.002412257483229041 0.00027632605633698404
3.623620068538003e-5 0.002338584279641509 0.00024663328076712787
3.555265357135795e-5 0.002265545539557934 0.00020968756871297956
3.3228800020879135e-5 0.002192574553191662 0.0001719701976981014
3.0166916985763237e-5 0.0021191819105297327 0.00013907160609960556
2.720216980378609e-5 0.002044977154582739 0.00011545507004484534
2.4974500774987977e-5 0.001969737932085991 0.00010366253991378471
2.3779994080541655e-5 0.0018935076659545305 0.00010319686407456176
2.3568165488541126e-5 0.0018165797227993608 0.00011070580512750894
2.406723433523439e-5 0.0017393806483596561 0.00012131460971431807
2.4901799406507052e-5 0.0016623653937131166 0.0001298217539442703
2.5678929887362756e-5 0.0015859442064538598 0.0001315396948484704
2.604758265078999e-5 0.0015104340855032206 0.00012284299009479582
2.573603342170827e-5 0.0014359952183440328 0.00010190225293627007
2.45715600613039e-5 0.0013624419225379825 7.08404477336444e-5
2.2486185116576962e-5 0.0012891418300569057 3.688341530505568e-5
1.951184640347492e-5 0.0012152415001764894 9.787460840016138e-6
1.5767878721817397e-5 0.0011399728246033192 -1.6691187738615552e-6
1.1443358744145371e-5 0.001062812632881105 8.495059773849789e-6
6.776487680326682e-6 0.0009833343792706728 4.515563341556117e-5
2.0328297978267074e-6 0.0009010126814246177 0.0001143152912845835
-2.5160579752991907e-6 0.0008155270479619503 0.00021963968174532056
-6.612403467443073e-6 0.0007272296934388578 0.0003571026027202606
-1.002946464723209e-5 0.0006372666684910655 0.000513603852596134
-1.2585563126776831e-5 0.0005474055069498718 0.0006689406582154334
-1.4154468772176187e-5 0.00045970824430696666 0.0007995440391823649
-1.4671891221951226e-5 0.0003761577245313674 0.0008827500278130173
-7.331854249059689e-6 0.0001678251865087077 0.00045493041398003703

CELL_DATA 50

VECTORS liftinglineloading               float
0.08671095967292786 -0.015417913906276228 0.08743933588266373
0.031690359115600586 -0.009100714698433876 0.05161271616816521
0.02957970835268497 -0.00980983767658472 0.05563435330986976
0.2086167186498642 -0.021622182801365852 0.12262549251317978
-0.17590980231761932 -0.04961837828159332 0.28139981627464294
-1.1732443571090698 -0.11375085264444351 0.6451131105422974
-2.8882288932800293 -0.21494607627391812 1.2190197706222534
-4.621306896209717 -0.3123282492160797 1.7713015079498289
-6.370969772338867 -0.40219545364379883 2.280963897705078
-8.567341804504395 -0.49464905261993414 2.8052942752838135
-10.79186725616455 -0.5824379920959473 3.3031702041625977
-12.463830947875977 -0.6365007758140564 3.609775066375732
-13.55289077758789 -0.6593127250671387 3.7391483783721924
-14.276735305786133 -0.6697279810905457 3.7982161045074463
-14.765264511108398 -0.6638252139091492 3.764739990234375
-15.07499408721924 -0.6534571051597595 3.7059392929077153
-15.124315261840822 -0.6186568737030029 3.508577585220337
-15.097290992736815 -0.5917374491691589 3.355909824371338
-15.134175300598145 -0.5676022171974182 3.2190322875976562
-14.642953872680662 -0.5278704762458801 2.9937021732330322
-14.479515075683594 -0.506565272808075 2.8728744983673096
-14.613630294799805 -0.4924222528934479 2.7926652431488037
-14.519413948059084 -0.4635488986968994 2.6289165019989014
-14.821602821350098 -0.45957812666893005 2.6063971519470215
-15.221155166625975 -0.442674070596695 2.5105295181274414
-15.601184844970703 -0.4315780401229858 2.447600841522217
-15.836575508117676 -0.420437216758728 2.38441801071167
-16.413375854492188 -0.41544821858406067 2.356123924255371
-17.739885330200195 -0.40357741713523865 2.288801431655884
-18.627830505371094 -0.3940867483615875 2.2349770069122314
-18.847049713134766 -0.3747876286506653 2.1255264282226562
-19.018789291381836 -0.3542869985103607 2.0092613697052
-19.106609344482422 -0.33196839690208435 1.8826863765716553
-19.32516098022461 -0.3030094802379608 1.7184520959854126
-19.136079788208008 -0.28953346610069275 1.6420258283615112
-18.89125633239746 -0.2693166434764862 1.527370572090149
-18.55490493774414 -0.25351929664611816 1.4377793073654175
-17.827199935913086 -0.23970690369606018 1.3594454526901245
-17.203678131103516 -0.2333243191242218 1.3232479095458984
-16.53054428100586 -0.22505474090576175 1.2763489484786987
-15.842242240905762 -0.2166828811168671 1.2288696765899658
-14.428511619567871 -0.20261867344379425 1.149107575416565
-12.711481094360352 -0.2009531706571579 1.1396621465682983
-10.73032283782959 -0.21679086983203885 1.2294821739196777
-9.035149574279785 -0.2464437335729599 1.3976517915725708
-7.395798683166503 -0.26475945115089417 1.5015255212783813
-6.0291290283203125 -0.2680644392967224 1.5202689170837402
-4.7122015953063965 -0.26403504610061646 1.4974170923233032
-3.2895529270172124 -0.2622973918914795 1.4875624179840088
-1.8588459491729736 -0.26865169405937195 1.5235995054244995