# vtk DataFile Version 4.0
 
ASCII
DATASET UNSTRUCTURED_GRID
POINTS 51 float
0.0032922609243541956 0.007437908556312323 0.0008435623603872955
0.003229763358831405 0.010311439633369446 0.0038546265568584204
0.003138394095003605 0.01345514040440321 0.006425510160624981
0.0028620881494134665 0.016683094203472137 0.008777780458331108
0.0024306110572069883 0.019965222105383873 0.010947281494736671
0.0019982317462563515 0.023158421739935875 0.013104561716318129
0.0017444419208914044 0.026033703237771988 0.015522514469921589
0.001740187988616526 0.028729259967803955 0.018036451190710068
0.0019156732596457005 0.031464625149965286 0.020384738221764565
0.00216366327367723 0.03406735137104988 0.02277289517223835
0.002406609710305929 0.036600664258003235 0.025125568732619286
0.0025995990727096796 0.039149217307567596 0.027341878041625023
0.002723678248003125 0.041660163551568985 0.029484797269105915
0.0027798479422926903 0.04407704994082451 0.03162161260843277
0.002782244235277176 0.046404801309108734 0.033746443688869476
0.0027508526109158993 0.04867979884147644 0.03581594303250313
0.0027057079132646322 0.050935860723257065 0.037789806723594666
0.0026627120096236467 0.05318105220794678 0.03965841606259346
0.002631532493978739 0.05539320036768913 0.0414482019841671
0.002616326557472348 0.05753998458385468 0.04319767653942108
0.002617395017296076 0.05960014462471008 0.04493218660354614
0.002632583025842905 0.06157326325774192 0.04665222018957138
0.0026584563311189413 0.06347255408763885 0.048342034220695496
0.0026912044268101454 0.06531345099210739 0.04998323693871498
0.0027272577863186598 0.06710757315158844 0.05156196653842926
0.0027636769227683544 0.06886183470487595 0.05307000875473022
0.0027983631007373333 0.0705786868929863 0.054504428058862686
0.0028301344718784094 0.0722566619515419 0.055866967886686325
0.002858696971088648 0.07389101386070251 0.0571632944047451
0.002884538844227791 0.07547451555728912 0.05840202048420906
0.002908645896241069 0.07699912786483765 0.05959271639585494
0.0029320986941456795 0.078458271920681 0.06074322760105133
0.002955782227218151 0.07984823733568192 0.06185797974467277
0.002980233170092106 0.08116874098777771 0.06293731182813644
0.003005585866048932 0.08242277801036835 0.06397765129804611
0.00303159118629992 0.08361610025167465 0.06497213989496231
0.0030576810240745544 0.08475640416145325 0.06591160595417023
0.003083063056692481 0.08585180342197418 0.06678639352321625
0.0031068241223692894 0.08690723776817322 0.06759059429168701
0.0031280354596674442 0.08792150020599365 0.06832566112279892
0.00314584793522954 0.08888693898916245 0.06900069862604141
0.0031595712061971426 0.08979103714227676 0.06963064521551132
0.003168734721839428 0.09061840921640396 0.07023382186889648
0.003173124277964235 0.09135023504495621 0.07083266228437424
0.003172800177708268 0.09196340292692184 0.07145470380783081
0.0031680921092629433 0.0924343541264534 0.07212803512811661
0.0031595753971487284 0.09274517744779587 0.07287399470806122
0.003148033283650875 0.0928892120718956 0.07370051741600037
0.003134404309093952 0.09287461638450623 0.07459788024425507
0.0031197243370115757 0.09272515028715134 0.07553776353597641
0.003105060663074255 0.09247822314500809 0.0764755979180336

CELLS 50 150
2 0 1
2 1 2
2 2 3
2 3 4
2 4 5
2 5 6
2 6 7
2 7 8
2 8 9
2 9 10
2 10 11
2 11 12
2 12 13
2 13 14
2 14 15
2 15 16
2 16 17
2 17 18
2 18 19
2 19 20
2 20 21
2 21 22
2 22 23
2 23 24
2 24 25
2 25 26
2 26 27
2 27 28
2 28 29
2 29 30
2 30 31
2 31 32
2 32 33
2 33 34
2 34 35
2 35 36
2 36 37
2 37 38
2 38 39
2 39 40
2 40 41
2 41 42
2 42 43
2 43 44
2 44 45
2 45 46
2 46 47
2 47 48
2 48 49
2 49 50

CELL_TYPES 50
4
4
4
4
4
4
4
4
4
4
4
4
4
4
4
4
4
4
4
4
4
4
4
4
4
4
4
4
4
4
4
4
4
4
4
4
4
4
4
4
4
4
4
4
4
4
4
4
4
4

POINT_DATA 51

SCALARS zone float
LOOKUP_TABLE default
1.0
1.0
1.0
1.0
1.0
1.0
1.0
1.0
1.0
1.0
1.0
1.0
1.0
1.0
1.0
1.0
1.0
1.0
1.0
1.0
1.0
1.0
1.0
1.0
1.0
1.0
1.0
1.0
1.0
1.0
1.0
1.0
1.0
1.0
1.0
1.0
1.0
1.0
1.0
1.0
1.0
1.0
1.0
1.0
1.0
1.0
1.0
1.0
1.0
1.0
1.0

VECTORS normals float
-3.124873182969168e-5 0.0014367655385285616 0.001505532069131732
-7.693334191571921e-5 0.0030086159240454435 0.002790973987430334
-0.0001838376629166305 0.003185827052220702 0.002461576834321022
-0.0003538915771059692 0.0032550410833209753 0.0022608856670558453
-0.0004319281433708965 0.003237663535401225 0.002163390628993511
-0.0003430845681577921 0.0030342398677021265 0.0022876164875924587
-0.00012902190792374313 0.00278541911393404 0.002465944504365325
8.561566210119054e-5 0.0027154614217579365 0.002431111875921488
0.0002117376570822671 0.0026690459344536066 0.002368222689256072
0.00024546831264160573 0.0025680202525109053 0.0023704152554273605
0.0002179679140681401 0.0025409336667507887 0.002284490969032049
0.00015853419608902186 0.002529749646782875 0.0021796145010739565
9.012437658384442e-5 0.0024639160837978125 0.002139866817742586
2.9283044568728656e-5 0.0023723188787698746 0.0021308232098817825
-1.4497647498501465e-5 0.0023013742174953222 0.0020971668418496847
-3.826815736829303e-5 0.0022655283100903034 0.0020216810517013073
-4.407023516250774e-5 0.002250626916065812 0.0019212350016459825
-3.708776057465002e-5 0.0022286702878773212 0.0018291970482096076
-2.319276609341614e-5 0.002179466187953949 0.0017696311697363853
-7.068673312460305e-6 0.002103471662849188 0.0017419928917661307
8.128289664455224e-6 0.002016638871282339 0.0017272712429985404
2.053066054941155e-5 0.0019362049642950296 0.0017049235757440329
2.9310647732927464e-5 0.0018700929358601568 0.0016655077924951913
3.440070213400759e-5 0.0018175113946199417 0.001609967090189457
3.623620068538003e-5 0.0017741930205374956 0.0015433869557455182
3.555265357135795e-5 0.0017355544259771705 0.0014712295960634947
3.3228800020879135e-5 0.001697413856163621 0.0013984788674861193
3.0166916985763237e-5 0.0016561639495193958 0.0013294335221871734
2.720216980378609e-5 0.0016089248238131404 0.0012675259495154023
2.4974500774987977e-5 0.0015540564199909568 0.0012147106463089585
2.3779994080541655e-5 0.0014918793458491564 0.0011706053046509624
2.3568165488541126e-5 0.0014245568308979273 0.0011326322564855218
2.406723433523439e-5 0.0013552340678870678 0.0010970429284498096
2.4901799406507052e-5 0.0012872673105448484 0.001059837406501174
2.5678929887362756e-5 0.0012236813781782985 0.0010174112394452095
2.604758265078999e-5 0.0011668154038488865 0.0009669765131548047
2.573603342170827e-5 0.0011178497225046158 0.0009071264648810029
2.45715600613039e-5 0.0010754147078841925 0.0008394936448894442
2.2486185116576962e-5 0.0010348476935178041 0.000769634498283267
1.951184640347492e-5 0.0009898536372929811 0.0007050512940622866
1.5767878721817397e-5 0.0009347684681415558 0.0006524943164549768
1.1443358744145371e-5 0.0008657326106913388 0.0006165630184113979
6.776487680326682e-6 0.00077960011549294 0.0006010067299939692
2.0328297978267074e-6 0.0006724978447891772 0.0006104412605054677
-2.5160579752991907e-6 0.0005420605302788317 0.0006476853741332889
-6.612403467443073e-6 0.00039088603807613254 0.0007096431218087673
-1.002946464723209e-5 0.00022742724104318765 0.0007862407364882529
-1.2585563126776831e-5 6.47197593934834e-5 0.0008619430009275675
-1.4154468772176187e-5 -8.202868048101664e-5 0.0009186259703710675
-1.4671891221951226e-5 -0.00019819423323497176 0.0009388616890646518
-7.331854249059689e-6 -0.00012346300354693085 0.00046891774400137365

CELL_DATA 50

VECTORS liftinglineloading               float
0.15577584505081177 -0.09337565302848816 0.09337565302848816
0.25004398822784424 -0.16956719756126404 0.16956719756126404
-0.1219797506928444 -0.04693755507469177 0.04693755507469177
0.15274955332279205 -0.06138171628117561 0.06138171628117561
0.20824535191059113 -0.11318928748369217 0.11318928748369217
-0.6825634837150574 -0.3526603877544403 0.3526603877544403
-2.4457762241363525 -0.7945541143417358 0.7945541143417358
-4.342367649078369 -1.2397339344024658 1.2397339344024658
-6.270974159240723 -1.6450151205062866 1.6450151205062866
-8.603644371032715 -2.036778450012207 2.036778450012207
-10.969894409179688 -2.4038941860198975 2.4038941860198975
-12.746245384216309 -2.624350070953369 2.624350070953369
-13.909745216369629 -2.7144508361816406 2.7144508361816406
-14.670491218566895 -2.7536535263061523 2.7536535263061523
-15.176305770874023 -2.7286877632141113 2.7286877632141113
-15.532712936401367 -2.689652919769287 2.689652919769287
-15.539191246032715 -2.5486717224121094 2.5486717224121094
-15.590025901794435 -2.441793203353882 2.441793203353882
-15.670921325683594 -2.3380978107452393 2.3380978107452393
-15.255675315856934 -2.180056095123291 2.180056095123291
-15.158748626708983 -2.0942230224609375 2.0942230224609375
-15.202455520629881 -2.0199012756347656 2.0199012756347656
-15.2899808883667 -1.9199439287185671 1.9199439287185671
-15.58790874481201 -1.89682137966156 1.89682137966156
-15.897571563720703 -1.8195818662643433 1.8195818662643433
-16.281753540039062 -1.7708101272583008 1.7708101272583008
-16.58753204345703 -1.726683735847473 1.726683735847473
-17.134334564208984 -1.698464035987854 1.698464035987854
-17.551082611083984 -1.6433789730072021 1.6433789730072021
-18.428810119628906 -1.6069629192352295 1.6069629192352295
-18.63301658630371 -1.5310006141662598 1.5310006141662598
-18.788610458374023 -1.4497995376586914 1.4497995376586914
-18.832983016967773 -1.3618258237838745 1.3618258237838745
-18.977712631225586 -1.2469475269317627 1.2469475269317627
-18.737194061279297 -1.1940925121307373 1.1940925121307373
-18.43927574157715 -1.1122313737869263 1.1122313737869263
-18.06293296813965 -1.0467771291732788 1.0467771291732788
-17.32061004638672 -0.9902448654174806 0.9902448654174806
-16.65445899963379 -0.9626874923706055 0.9626874923706055
-15.935006141662596 -0.9281303286552429 0.9281303286552429
-15.251452445983887 -0.893701434135437 0.893701434135437
-13.713865280151367 -0.837000608444214 0.837000608444214
-12.052542686462402 -0.8201101422309875 0.8201101422309875
-10.13464069366455 -0.8795825242996216 0.8795825242996216
-8.509597778320312 -0.9885193109512328 0.9885193109512328
-6.90276050567627 -1.0610824823379517 1.0610824823379517
-5.595089912414551 -1.071341633796692 1.071341633796692
-4.333807468414307 -1.0523751974105835 1.0523751974105835
-2.9956486225128174 -1.0431209802627563 1.0431209802627563
-1.683229088783264 -1.0707653760910034 1.0707653760910034