# vtk DataFile Version 4.0
 
ASCII
DATASET UNSTRUCTURED_GRID
POINTS 51 float
0.0032922609243541956 -0.0041347891092300415 -0.006240000016987324
0.003229763358831405 -0.0036752503365278244 -0.01037672720849514
0.003138394095003605 -0.003726571099832654 -0.014437473379075527
0.0028620881494134665 -0.0039995163679122925 -0.018422240391373634
0.0024306110572069883 -0.004447293467819691 -0.022331025451421738
0.0019982317462563515 -0.004847269505262375 -0.026163829490542415
0.0017444419208914044 -0.004843205213546753 -0.029920652508735657
0.001740187988616526 -0.0046500894241034985 -0.03360149636864662
0.0019156732596457005 -0.0046094562858343124 -0.03720635920763016
0.00216366327367723 -0.004453021101653576 -0.040735241025686264
0.002406609710305929 -0.004279152024537325 -0.04418814182281494
0.0025995990727096796 -0.004219538997858763 -0.04756506159901619
0.002723678248003125 -0.004191972315311432 -0.05086600035429001
0.0027798479422926903 -0.004108622670173645 -0.054090958088636405
0.002782244235277176 -0.003977156709879637 -0.05723993852734566
0.0027508526109158993 -0.003854166017845273 -0.06031293421983719
0.0027057079132646322 -0.003792268456891179 -0.06330995261669159
0.0026627120096236467 -0.0038040135987102985 -0.06623098999261856
0.002631532493978739 -0.003854899201542139 -0.0690760463476181
0.002616326557472348 -0.0038946487475186586 -0.07184511423110962
0.002617395017296076 -0.0038901823572814465 -0.0745382085442543
0.002632583025842905 -0.0038408567197620873 -0.07715532183647156
0.0026584563311189413 -0.0037672249600291256 -0.07969645410776138
0.0026912044268101454 -0.003693295875564218 -0.08216160535812378
0.0027272577863186598 -0.0036371601745486264 -0.08455078303813934
0.0027636769227683544 -0.0036095483228564262 -0.08686397224664688
0.0027983631007373333 -0.0036142913158982992 -0.08910118043422699
0.0028301344718784094 -0.0036491076461970806 -0.09126240760087967
0.002858696971088648 -0.003706604242324829 -0.09334765374660492
0.002884538844227791 -0.003775539342314005 -0.09535692632198334
0.002908645896241069 -0.003843416227027774 -0.09729021042585373
0.0029320986941456795 -0.0038999910466372967 -0.09914752095937729
0.002955782227218151 -0.003939497750252485 -0.10092884302139282
0.002980233170092106 -0.003961479291319847 -0.10263418406248094
0.003005585866048932 -0.0039706118404865265 -0.10426355153322218
0.00303159118629992 -0.003975849132984877 -0.10581693798303606
0.0030576810240745544 -0.0039891465567052364 -0.10729433596134187
0.003083063056692481 -0.004023130517452955 -0.10869576036930083
0.0031068241223692894 -0.004085494205355644 -0.1100212037563324
0.0031280354596674442 -0.004174356814473867 -0.11127065867185593
0.00314584793522954 -0.0042778244242072105 -0.11244414001703264
0.0031595712061971426 -0.004376392811536789 -0.11354164034128189
0.003168734721839428 -0.004446159116923809 -0.11456315964460372
0.003173124277964235 -0.004457831382751465 -0.11550869792699814
0.003172800177708268 -0.0043754554353654385 -0.11637825518846512
0.0031680921092629433 -0.004162379540503025 -0.11717183142900467
0.0031595753971487284 -0.003790732705965638 -0.11788942664861679
0.003148033283650875 -0.0032501635141670704 -0.11853104084730147
0.003134404309093952 -0.0025533614680171013 -0.11909667402505875
0.0031197243370115757 -0.001737292855978012 -0.11958632618188858
0.003105060663074255 -0.0008601482259109616 -0.11999999731779097

CELLS 50 150
2 0 1
2 1 2
2 2 3
2 3 4
2 4 5
2 5 6
2 6 7
2 7 8
2 8 9
2 9 10
2 10 11
2 11 12
2 12 13
2 13 14
2 14 15
2 15 16
2 16 17
2 17 18
2 18 19
2 19 20
2 20 21
2 21 22
2 22 23
2 23 24
2 24 25
2 25 26
2 26 27
2 27 28
2 28 29
2 29 30
2 30 31
2 31 32
2 32 33
2 33 34
2 34 35
2 35 36
2 36 37
2 37 38
2 38 39
2 39 40
2 40 41
2 41 42
2 42 43
2 43 44
2 44 45
2 45 46
2 46 47
2 47 48
2 48 49
2 49 50

CELL_TYPES 50
4
4
4
4
4
4
4
4
4
4
4
4
4
4
4
4
4
4
4
4
4
4
4
4
4
4
4
4
4
4
4
4
4
4
4
4
4
4
4
4
4
4
4
4
4
4
4
4
4
4

POINT_DATA 51

SCALARS zone float
LOOKUP_TABLE default
1.0
1.0
1.0
1.0
1.0
1.0
1.0
1.0
1.0
1.0
1.0
1.0
1.0
1.0
1.0
1.0
1.0
1.0
1.0
1.0
1.0
1.0
1.0
1.0
1.0
1.0
1.0
1.0
1.0
1.0
1.0
1.0
1.0
1.0
1.0
1.0
1.0
1.0
1.0
1.0
1.0
1.0
1.0
1.0
1.0
1.0
1.0
1.0
1.0
1.0
1.0

VECTORS normals float
-3.124873182969168e-5 0.00022976940090302378 -0.002068363595753908
-7.693334191571921e-5 0.00020410906290635464 -0.004098737146705389
-0.0001838376629166305 -0.00016213295748457313 -0.00402275612577796
-0.0003538915771059692 -0.0003603611548896879 -0.003946775570511818
-0.0004319281433708965 -0.00042387662688270206 -0.0038707947824150324
-0.0003430845681577921 -0.00019795598927885294 -0.003794813994318247
-0.00012902190792374313 9.859020792646334e-5 -0.003718833439052105
8.561566210119054e-5 0.00011687466758303346 -0.0036428526509553194
0.0002117376570822671 9.853410301730037e-5 -0.003566872095689177
0.00024546831264160573 0.00016515191236976534 -0.0034908913075923915
0.0002179679140681401 0.00011674094275804238 -0.003414910519495607
0.00015853419608902186 4.3589912820607424e-5 -0.003338929964229465
9.012437658384442e-5 5.545832391362638e-5 -0.003262949176132679
2.9283044568728656e-5 0.00010740796278696507 -0.0031869683880358934
-1.4497647498501465e-5 0.0001272281660931185 -0.0031109878327697515
-3.826815736829303e-5 9.244403190677986e-5 -0.003035007044672966
-4.407023516250774e-5 2.507631688786205e-5 -0.0029590262565761805
-3.708776057465002e-5 -3.131536868750118e-5 -0.0028830457013100386
-2.319276609341614e-5 -4.531767626758665e-5 -0.002807064913213253
-7.068673312460305e-6 -1.7641614249441773e-5 -0.0027310841251164675
8.128289664455224e-6 2.6896073904936202e-5 -0.0026551035698503256
2.053066054941155e-5 6.147867679828778e-5 -0.00257912278175354
2.9310647732927464e-5 7.378040027106181e-5 -0.002503142226487398
3.440070213400759e-5 6.5032480051741e-5 -0.0024271614383906126
3.623620068538003e-5 4.1873725422192365e-5 -0.002351180650293827
3.555265357135795e-5 1.1434328371251468e-5 -0.002275200095027685
3.3228800020879135e-5 -1.9779665308305994e-5 -0.0021992193069308996
3.0166916985763237e-5 -4.6156470489222556e-5 -0.002123238518834114
2.720216980378609e-5 -6.321576802292839e-5 -0.002047257963567972
2.4974500774987977e-5 -6.840589048806578e-5 -0.0019712771754711866
2.3779994080541655e-5 -6.222589581739157e-5 -0.0018952965037897231
2.3568165488541126e-5 -4.804082345799543e-5 -0.0018193157156929374
2.406723433523439e-5 -3.0744045943720266e-5 -0.0017433350440114737
2.4901799406507052e-5 -1.5556955986539833e-5 -0.00166735437233001
2.5678929887362756e-5 -7.184996320575011e-6 -0.0015913737006485462
2.604758265078999e-5 -9.267471796192694e-6 -0.0015153929125517607
2.573603342170827e-5 -2.3640748622710817e-5 -0.001439412240870297
2.45715600613039e-5 -4.817375884158537e-5 -0.0013634315691888332
2.2486185116576962e-5 -7.561304664704949e-5 -0.0012874507810920477
1.951184640347492e-5 -9.616505849407986e-5 -0.001211470109410584
1.5767878721817397e-5 -0.00010101794759975748 -0.0011354894377291203
1.1443358744145371e-5 -8.416749187745154e-5 -0.0010595087660476565
6.776487680326682e-6 -4.0719431126490235e-5 -0.000983527977950871
2.0328297978267074e-6 3.5351855331100523e-5 -0.0009075473062694074
-2.5160579752991907e-6 0.00014772600843571126 -0.0008315665763802826
-6.612403467443073e-6 0.000292361481115222 -0.0007555859046988189
-1.002946464723209e-5 0.0004561079549603164 -0.0006796051748096943
-1.2585563126776831e-5 0.0006186855607666075 -0.0006036245031282306
-1.4154468772176187e-5 0.0007564353290945292 -0.0005276437732391059
-1.4671891221951226e-5 0.0008466066210530699 -0.0004516630724538117
-7.331854249059689e-6 0.00043857231503352523 -0.00020683636830653995

CELL_DATA 50

VECTORS liftinglineloading               float
0.09391708672046661 0.0918087288737297 0.008032223209738731
0.07062828540802002 0.09147360920906067 0.008002904243767262
-0.01919122226536274 0.03618103265762329 0.0031654303893446922
0.23650673031806946 0.10484249144792558 0.009172528982162476
-0.11855202168226242 0.259129136800766 0.022670863196253777
-1.0718748569488525 0.61310875415802 0.05364006757736206
-2.795501708984375 1.197167992591858 0.10473863035440445
-4.552396774291992 1.7582449913024902 0.153826504945755
-6.327686786651611 2.269124984741211 0.19852270185947418
-8.562171936035156 2.7965126037597656 0.24466314911842346
-10.837617874145508 3.3020305633544926 0.2888902425765991
-12.630661964416504 3.6134085655212407 0.3161322772502899
-13.732122421264648 3.742349863052368 0.3274132013320923
-14.457809448242186 3.80385684967041 0.33279433846473694
-14.952682495117188 3.7779934406280518 0.33053159713745117
-15.312709808349611 3.73172116279602 0.3264833092689514
-15.391372680664062 3.547846794128418 0.31039637327194214
-15.357394218444826 3.393727540969849 0.29691269993782043
-15.394695281982422 3.251127004623413 0.28443676233291626
-14.925355911254881 3.0294547080993652 0.2650429308414459
-14.759541511535643 2.9082374572753906 0.25443780422210693
-14.771727561950682 2.8135428428649902 0.2461531013250351
-14.704705238342285 2.658447742462158 0.23258404433727264
-14.92387008666992 2.6294097900390625 0.23004354536533356
-15.220182418823242 2.5274200439453125 0.22112059593200686
-15.50465202331543 2.4617555141448975 0.21537569165229797
-15.660452842712402 2.3940978050231934 0.2094564139842987
-16.193309783935547 2.367530584335327 0.2071320861577988
-16.586360931396484 2.294212579727173 0.20071759819984436
-17.488365173339844 2.2553679943084717 0.1973191201686859
-17.794845581054688 2.1604690551757812 0.18901653587818146
-18.033931732177734 2.0534462928771973 0.17965327203273773
-18.1707706451416 1.9338959455490112 0.16919396817684174
-18.366701126098633 1.773676872253418 0.15517662465572357
-18.218643188476562 1.6973853111267088 0.14850197732448578
-17.998600006103516 1.5787070989608765 0.13811896741390228
-17.673017501831055 1.4834340810775757 0.12978366017341614
-17.010211944580078 1.401679277420044 0.12263104319572449
-16.39065170288086 1.3604689836502075 0.11902561038732527
-15.706463813781737 1.3105356693267822 0.11465701460838319
-15.079665184020994 1.2609434127807617 0.11031825840473174
-13.67811107635498 1.178370714187622 0.10309407860040665
-12.03266429901123 1.1543629169464111 0.10099367052316666
-10.131296157836914 1.2383977174758911 0.10834576189517975
-8.515113830566406 1.3924473524093628 0.12182335555553435
-6.916031360626221 1.495317816734314 0.13082335889339447
-5.614086627960205 1.5106847286224365 0.132167786359787
-4.357511520385742 1.485094428062439 0.12992893159389496
-3.0200181007385254 1.4734326601028442 0.1289086639881134
-1.6908102035522459 1.510752558708191 0.13217371702194214