# vtk DataFile Version 4.0
 
ASCII
DATASET UNSTRUCTURED_GRID
POINTS 51 float
0.0032922609243541956 0.005608930718153715 0.004957214929163456
0.003229763358831405 0.006235714070498943 0.009071923792362213
0.003138394095003605 0.007336284499615431 0.012981020845472813
0.0028620881494134665 0.008631262928247452 0.016759365797042847
0.0024306110572069883 0.01007544994354248 0.02041906863451004
0.0019982317462563515 0.011453799903392792 0.024017753079533577
0.0017444419208914044 0.012422212399542332 0.027647618204355236
0.001740187988616526 0.013188348151743414 0.03125302121043205
0.0019156732596457005 0.01408210676163435 0.03474556654691696
0.00216366327367723 0.014844343997538088 0.0381946936249733
0.002406609710305929 0.015570076182484627 0.04157494008541107
0.0025995990727096796 0.016386505216360092 0.04485222324728966
0.002723678248003125 0.017214223742485046 0.04804782196879387
0.0027798479422926903 0.017968395724892616 0.05118446424603463
0.002782244235277176 0.018656423315405846 0.054260171949863434
0.0027508526109158993 0.019332975149154663 0.057260289788246155
0.0027057079132646322 0.020048871636390686 0.060171205550432205
0.0026627120096236467 0.02081623673439026 0.06298966705799103
0.002631532493978739 0.021601742133498192 0.06572461128234863
0.002616326557472348 0.022356826812028885 0.06838904321193695
0.002617395017296076 0.02304953709244728 0.07099153101444244
0.002632583025842905 0.023679250851273537 0.07353223115205765
0.0026584563311189413 0.024265820160508156 0.07600583881139755
0.0026912044268101454 0.024832438677549362 0.07840612530708313
0.0027272577863186598 0.025396579876542088 0.08072841912508011
0.0027636769227683544 0.02596860565245152 0.08296993374824524
0.0027983631007373333 0.0265522189438343 0.08512968569993973
0.0028301344718784094 0.02714521624147892 0.08720825612545013
0.002858696971088648 0.027740456163883213 0.08920757472515106
0.002884538844227791 0.028327079489827156 0.09113053232431412
0.002908645896241069 0.028893014416098598 0.09298037737607956
0.0029320986941456795 0.02942836843430996 0.0947597548365593
0.002955782227218151 0.029927568510174755 0.09647016227245331
0.002980233170092106 0.030390176922082904 0.09811170399188995
0.003005585866048932 0.03082070872187614 0.09968318790197372
0.00303159118629992 0.031227814033627507 0.10118228197097778
0.0030576810240745544 0.03162303939461708 0.102605901658535
0.003083063056692481 0.03201857954263687 0.10395077615976334
0.0031068241223692894 0.03242186829447746 0.1052149161696434
0.0031280354596674442 0.03283108398318291 0.106398805975914
0.00314584793522954 0.033234745264053345 0.10750551521778107
0.0031595712061971426 0.033614009618759155 0.1085401102900505
0.003168734721839428 0.03394578769803047 0.10950876027345657
0.003173124277964235 0.034201785922050476 0.11041905730962752
0.003172800177708268 0.03434727340936661 0.11128030717372893
0.0031680921092629433 0.03434685245156288 0.1121019944548607
0.0031595753971487284 0.034173596650362015 0.11289132386445999
0.003148033283650875 0.033817507326602936 0.11365098506212233
0.003134404309093952 0.03329084441065788 0.11437769234180449
0.0031197243370115757 0.03262931481003761 0.11506187915802002
0.003105060663074255 0.03188912570476532 0.11568847298622131

CELLS 50 150
2 0 1
2 1 2
2 2 3
2 3 4
2 4 5
2 5 6
2 6 7
2 7 8
2 8 9
2 9 10
2 10 11
2 11 12
2 12 13
2 13 14
2 14 15
2 15 16
2 16 17
2 17 18
2 18 19
2 19 20
2 20 21
2 21 22
2 22 23
2 23 24
2 24 25
2 25 26
2 26 27
2 27 28
2 28 29
2 29 30
2 30 31
2 31 32
2 32 33
2 33 34
2 34 35
2 35 36
2 36 37
2 37 38
2 38 39
2 39 40
2 40 41
2 41 42
2 42 43
2 43 44
2 44 45
2 45 46
2 46 47
2 47 48
2 48 49
2 49 50

CELL_TYPES 50
4
4
4
4
4
4
4
4
4
4
4
4
4
4
4
4
4
4
4
4
4
4
4
4
4
4
4
4
4
4
4
4
4
4
4
4
4
4
4
4
4
4
4
4
4
4
4
4
4
4

POINT_DATA 51

SCALARS zone float
LOOKUP_TABLE default
1.0
1.0
1.0
1.0
1.0
1.0
1.0
1.0
1.0
1.0
1.0
1.0
1.0
1.0
1.0
1.0
1.0
1.0
1.0
1.0
1.0
1.0
1.0
1.0
1.0
1.0
1.0
1.0
1.0
1.0
1.0
1.0
1.0
1.0
1.0
1.0
1.0
1.0
1.0
1.0
1.0
1.0
1.0
1.0
1.0
1.0
1.0
1.0
1.0
1.0
1.0

VECTORS normals float
-3.124873182969168e-5 0.00031339170527644455 0.0020573546644300222
-7.693334191571921e-5 0.0008636769489385188 0.004011902958154678
-0.0001838376629166305 0.0011977743124589324 0.003843721002340317
-0.0003538915771059692 0.0013695828383788466 0.003719024127349258
-0.0004319281433708965 0.0014112688368186355 0.0036291934084147215
-0.0003430845681577921 0.001173380995169282 0.003614274086430669
-0.00012902190792374313 0.0008672740659676492 0.0036176342982798815
8.561566210119054e-5 0.0008299474138766527 0.003548974869772792
0.0002117376570822671 0.000827997748274356 0.003470836207270622
0.00024546831264160573 0.0007439846522174776 0.0034146865364164114
0.0002179679140681401 0.000771080784033984 0.0033287650439888243
0.00015853419608902186 0.0008220740128308535 0.0032364404760301113
9.012437658384442e-5 0.0007909447303973138 0.0031661204993724823
2.9283044568728656e-5 0.0007211000192910433 0.0031061742920428514
-1.4497647498501465e-5 0.0006822898867540061 0.0030379125382751226
-3.826815736829303e-5 0.0006962235784158111 0.002955517964437604
-4.407023516250774e-5 0.0007416305015794933 0.002864690264686942
-3.708776057465002e-5 0.0007764354231767356 0.002776703331619501
-2.319276609341614e-5 0.0007702953880652785 0.0026996873784810305
-7.068673312460305e-6 0.000723897130228579 0.0026334587018936872
8.128289664455224e-6 0.0006612117285840213 0.002571594202890992
2.053066054941155e-5 0.0006081422907300293 0.0025071531999856234
2.9310647732927464e-5 0.000576594437006861 0.0024369454476982355
3.440070213400759e-5 0.000565379043109715 0.002361289458349347
3.623620068538003e-5 0.0005680834292434156 0.002281903987750411
3.555265357135795e-5 0.0005778204067610204 0.002200633753091097
3.3228800020879135e-5 0.000588305527344346 0.0021191632840782404
3.0166916985763237e-5 0.0005941183189861476 0.0020389447454363108
2.720216980378609e-5 0.0005909311003051698 0.001961137866601348
2.4974500774987977e-5 0.0005762790679000318 0.0018864028388634324
2.3779994080541655e-5 0.0005506444140337408 0.001814610557630658
2.3568165488541126e-5 0.0005172774544917047 0.0017448902362957597
2.406723433523439e-5 0.00048090479685924947 0.00167597527615726
2.4901799406507052e-5 0.00044656993122771377 0.00160651421174407
2.5678929887362756e-5 0.00041881797369569545 0.0015352893387898803
2.604758265078999e-5 0.0004011642595287412 0.001461358624510467
2.573603342170827e-5 0.000395382521674037 0.001384246745146811
2.45715600613039e-5 0.0003994143335148692 0.00130450539290905
2.2486185116576962e-5 0.0004062533844262361 0.0012240118812769651
1.951184640347492e-5 0.0004064398526679724 0.0011453009210526943
1.5767878721817397e-5 0.0003914621192961931 0.001070653204806149
1.1443358744145371e-5 0.0003555205767042935 0.0010016226442530751
6.776487680326682e-6 0.000293887744192034 0.0009394761291332544
2.0328297978267074e-6 0.0002007432631216943 0.0008857731008902192
-2.5160579752991907e-6 7.253290095832199e-5 0.0008414659532718359
-6.612403467443073e-6 -8.683947817189619e-5 0.0008055086364038288
-1.002946464723209e-5 -0.00026467168936505914 0.0007744976319372654
-1.2585563126776831e-5 -0.0004413748683873564 0.0007431841222569346
-1.4154468772176187e-5 -0.0005940962000750005 0.0007054446614347398
-1.4671891221951226e-5 -0.0007008601678535342 0.0006553909624926746
-7.331854249059689e-6 -0.0003700951347127557 0.0003132994461338967

CELL_DATA 50

VECTORS liftinglineloading               float
0.19730976223945618 -0.15272456407546997 0.026929462328553196
0.317447304725647 -0.2814648449420929 0.04962984845042229
-0.23575896024703982 -0.16616931557655334 0.02930013276636601
0.006499793380498887 -0.09303184598684311 0.01640402525663376
0.41714456677436834 -0.0775672048330307 0.013677190989255905
-0.37037038803100586 -0.3819170594215393 0.06734228134155273
-2.0664329528808594 -0.995604932308197 0.17555201053619385
-3.978440761566162 -1.6407376527786255 0.28930631279945374
-5.957704067230225 -2.242971658706665 0.3954964280128479
-8.530476570129395 -2.8433547019958496 0.5013601183891296
-10.94278621673584 -3.3637504577636723 0.5931199193000793
-12.768759727478027 -3.6817042827606206 0.6491838097572327
-13.95604991912842 -3.810698986053467 0.6719290614128113
-14.731888771057127 -3.866891622543335 0.6818373203277588
-15.246088981628418 -3.8316853046417236 0.6756294965744019
-15.602434158325197 -3.7759661674499516 0.6658047437667847
-15.67789077758789 -3.5829286575317383 0.6317669749259949
-15.700848579406737 -3.4306089878082275 0.6049089431762695
-15.771451950073242 -3.2850751876831055 0.5792474150657654
-15.352536201477049 -3.062940835952759 0.5400791168212891
-15.266780853271484 -2.94327712059021 0.5189791917800903
-15.33500385284424 -2.8407416343688965 0.5008993744850159
-15.439054489135742 -2.7003719806671143 0.47614845633506775
-15.755495071411133 -2.668198585510254 0.4704753756523133
-16.024761199951172 -2.554590940475464 0.450443297624588
-16.406991958618164 -2.4849658012390137 0.43816652894020086
-16.692157745361328 -2.4212913513183594 0.42693901062011724
-17.20214080810547 -2.3801238536834717 0.41968005895614624
-17.627700805664062 -2.3020079135894775 0.4059061110019684
-18.495454788208008 -2.249457597732544 0.3966400921344757
-18.6547794342041 -2.143110752105713 0.3778882324695587
-18.749658584594727 -2.030752658843994 0.3580764830112457
-18.754112243652344 -1.9091436862945557 0.3366335332393646
-18.851903915405273 -1.750116229057312 0.30859270691871643
-18.65869903564453 -1.6738288402557373 0.29514119029045105
-18.326278686523438 -1.5598276853561401 0.2750397026538849
-17.906497955322266 -1.4685148000717163 0.2589387893676758
-17.157337188720703 -1.389265537261963 0.24496500194072723
-16.47634506225586 -1.3497209548950195 0.2379922121763229
-15.743432998657228 -1.3008238077163696 0.22937034070491794
-15.067852973937988 -1.252515435218811 0.22085227072238925
-13.644423484802248 -1.1705132722854614 0.20639307796955111
-11.996783256530762 -1.1450377702713013 0.20190104842185974
-10.088766098022461 -1.2271926403045654 0.21638716757297516
-8.474358558654785 -1.3772996664047241 0.2428551018238068
-6.874587535858153 -1.4786067008972168 0.2607182562351227
-5.57771110534668 -1.4930946826934814 0.26327288150787354
-4.3263444900512695 -1.4672327041625977 0.2587127089500427
-2.9969730377197266 -1.455361008644104 0.256619393825531
-1.6769118309020994 -1.492448091506958 0.2631588578224182