# vtk DataFile Version 4.0
 
ASCII
DATASET UNSTRUCTURED_GRID
POINTS 51 float
0.0032922609243541956 -0.004957214929163456 0.005608930718153715
0.003229763358831405 -0.009071923792362213 0.006235714070498943
0.003138394095003605 -0.012981020845472813 0.007336284499615431
0.0028620881494134665 -0.016759365797042847 0.008631262928247452
0.0024306110572069883 -0.02041906863451004 0.01007544994354248
0.0019982317462563515 -0.024017753079533577 0.011453799903392792
0.0017444419208914044 -0.027647618204355236 0.012422212399542332
0.001740187988616526 -0.03125302121043205 0.013188348151743414
0.0019156732596457005 -0.03474556654691696 0.01408210676163435
0.00216366327367723 -0.0381946936249733 0.014844343997538088
0.002406609710305929 -0.04157494008541107 0.015570076182484627
0.0025995990727096796 -0.04485222324728966 0.016386505216360092
0.002723678248003125 -0.04804782196879387 0.017214223742485046
0.0027798479422926903 -0.05118446424603463 0.017968395724892616
0.002782244235277176 -0.054260171949863434 0.018656423315405846
0.0027508526109158993 -0.057260289788246155 0.019332975149154663
0.0027057079132646322 -0.060171205550432205 0.020048871636390686
0.0026627120096236467 -0.06298966705799103 0.02081623673439026
0.002631532493978739 -0.06572461128234863 0.021601742133498192
0.002616326557472348 -0.06838904321193695 0.022356826812028885
0.002617395017296076 -0.07099153101444244 0.02304953709244728
0.002632583025842905 -0.07353223115205765 0.023679250851273537
0.0026584563311189413 -0.07600583881139755 0.024265820160508156
0.0026912044268101454 -0.07840612530708313 0.024832438677549362
0.0027272577863186598 -0.08072841912508011 0.025396579876542088
0.0027636769227683544 -0.08296993374824524 0.02596860565245152
0.0027983631007373333 -0.08512968569993973 0.0265522189438343
0.0028301344718784094 -0.08720825612545013 0.02714521624147892
0.002858696971088648 -0.08920757472515106 0.027740456163883213
0.002884538844227791 -0.09113053232431412 0.028327079489827156
0.002908645896241069 -0.09298037737607956 0.028893014416098598
0.0029320986941456795 -0.0947597548365593 0.02942836843430996
0.002955782227218151 -0.09647016227245331 0.029927568510174755
0.002980233170092106 -0.09811170399188995 0.030390176922082904
0.003005585866048932 -0.09968318790197372 0.03082070872187614
0.00303159118629992 -0.10118228197097778 0.031227814033627507
0.0030576810240745544 -0.102605901658535 0.03162303939461708
0.003083063056692481 -0.10395077615976334 0.03201857954263687
0.0031068241223692894 -0.1052149161696434 0.03242186829447746
0.0031280354596674442 -0.106398805975914 0.03283108398318291
0.00314584793522954 -0.10750551521778107 0.033234745264053345
0.0031595712061971426 -0.1085401102900505 0.033614009618759155
0.003168734721839428 -0.10950876027345657 0.03394578769803047
0.003173124277964235 -0.11041905730962752 0.034201785922050476
0.003172800177708268 -0.11128030717372893 0.03434727340936661
0.0031680921092629433 -0.1121019944548607 0.03434685245156288
0.0031595753971487284 -0.11289132386445999 0.034173596650362015
0.003148033283650875 -0.11365098506212233 0.033817507326602936
0.003134404309093952 -0.11437769234180449 0.03329084441065788
0.0031197243370115757 -0.11506187915802002 0.03262931481003761
0.003105060663074255 -0.11568847298622131 0.03188912570476532

CELLS 50 150
2 0 1
2 1 2
2 2 3
2 3 4
2 4 5
2 5 6
2 6 7
2 7 8
2 8 9
2 9 10
2 10 11
2 11 12
2 12 13
2 13 14
2 14 15
2 15 16
2 16 17
2 17 18
2 18 19
2 19 20
2 20 21
2 21 22
2 22 23
2 23 24
2 24 25
2 25 26
2 26 27
2 27 28
2 28 29
2 29 30
2 30 31
2 31 32
2 32 33
2 33 34
2 34 35
2 35 36
2 36 37
2 37 38
2 38 39
2 39 40
2 40 41
2 41 42
2 42 43
2 43 44
2 44 45
2 45 46
2 46 47
2 47 48
2 48 49
2 49 50

CELL_TYPES 50
4
4
4
4
4
4
4
4
4
4
4
4
4
4
4
4
4
4
4
4
4
4
4
4
4
4
4
4
4
4
4
4
4
4
4
4
4
4
4
4
4
4
4
4
4
4
4
4
4
4

POINT_DATA 51

SCALARS zone float
LOOKUP_TABLE default
1.0
1.0
1.0
1.0
1.0
1.0
1.0
1.0
1.0
1.0
1.0
1.0
1.0
1.0
1.0
1.0
1.0
1.0
1.0
1.0
1.0
1.0
1.0
1.0
1.0
1.0
1.0
1.0
1.0
1.0
1.0
1.0
1.0
1.0
1.0
1.0
1.0
1.0
1.0
1.0
1.0
1.0
1.0
1.0
1.0
1.0
1.0
1.0
1.0
1.0
1.0

VECTORS normals float
-3.124873182969168e-5 -0.0020573546644300222 0.00031339170527644455
-7.693334191571921e-5 -0.004011902958154678 0.0008636769489385188
-0.0001838376629166305 -0.003843721002340317 0.0011977743124589324
-0.0003538915771059692 -0.003719024127349258 0.0013695828383788466
-0.0004319281433708965 -0.0036291934084147215 0.0014112688368186355
-0.0003430845681577921 -0.003614274086430669 0.001173380995169282
-0.00012902190792374313 -0.0036176342982798815 0.0008672740659676492
8.561566210119054e-5 -0.003548974869772792 0.0008299474138766527
0.0002117376570822671 -0.003470836207270622 0.000827997748274356
0.00024546831264160573 -0.0034146865364164114 0.0007439846522174776
0.0002179679140681401 -0.0033287650439888243 0.000771080784033984
0.00015853419608902186 -0.0032364404760301113 0.0008220740128308535
9.012437658384442e-5 -0.0031661204993724823 0.0007909447303973138
2.9283044568728656e-5 -0.0031061742920428514 0.0007211000192910433
-1.4497647498501465e-5 -0.0030379125382751226 0.0006822898867540061
-3.826815736829303e-5 -0.002955517964437604 0.0006962235784158111
-4.407023516250774e-5 -0.002864690264686942 0.0007416305015794933
-3.708776057465002e-5 -0.002776703331619501 0.0007764354231767356
-2.319276609341614e-5 -0.0026996873784810305 0.0007702953880652785
-7.068673312460305e-6 -0.0026334587018936872 0.000723897130228579
8.128289664455224e-6 -0.002571594202890992 0.0006612117285840213
2.053066054941155e-5 -0.0025071531999856234 0.0006081422907300293
2.9310647732927464e-5 -0.0024369454476982355 0.000576594437006861
3.440070213400759e-5 -0.002361289458349347 0.000565379043109715
3.623620068538003e-5 -0.002281903987750411 0.0005680834292434156
3.555265357135795e-5 -0.002200633753091097 0.0005778204067610204
3.3228800020879135e-5 -0.0021191632840782404 0.000588305527344346
3.0166916985763237e-5 -0.0020389447454363108 0.0005941183189861476
2.720216980378609e-5 -0.001961137866601348 0.0005909311003051698
2.4974500774987977e-5 -0.0018864028388634324 0.0005762790679000318
2.3779994080541655e-5 -0.001814610557630658 0.0005506444140337408
2.3568165488541126e-5 -0.0017448902362957597 0.0005172774544917047
2.406723433523439e-5 -0.00167597527615726 0.00048090479685924947
2.4901799406507052e-5 -0.00160651421174407 0.00044656993122771377
2.5678929887362756e-5 -0.0015352893387898803 0.00041881797369569545
2.604758265078999e-5 -0.001461358624510467 0.0004011642595287412
2.573603342170827e-5 -0.001384246745146811 0.000395382521674037
2.45715600613039e-5 -0.00130450539290905 0.0003994143335148692
2.2486185116576962e-5 -0.0012240118812769651 0.0004062533844262361
1.951184640347492e-5 -0.0011453009210526943 0.0004064398526679724
1.5767878721817397e-5 -0.001070653204806149 0.0003914621192961931
1.1443358744145371e-5 -0.0010016226442530751 0.0003555205767042935
6.776487680326682e-6 -0.0009394761291332544 0.000293887744192034
2.0328297978267074e-6 -0.0008857731008902192 0.0002007432631216943
-2.5160579752991907e-6 -0.0008414659532718359 7.253290095832199e-5
-6.612403467443073e-6 -0.0008055086364038288 -8.683947817189619e-5
-1.002946464723209e-5 -0.0007744976319372654 -0.00026467168936505914
-1.2585563126776831e-5 -0.0007431841222569346 -0.0004413748683873564
-1.4154468772176187e-5 -0.0007054446614347398 -0.0005940962000750005
-1.4671891221951226e-5 -0.0006553909624926746 -0.0007008601678535342
-7.331854249059689e-6 -0.0003132994461338967 -0.0003700951347127557

CELL_DATA 50

VECTORS liftinglineloading               float
0.11940240859985352 -0.01866547018289566 -0.10585714876651764
0.149982288479805 -0.027414910495281216 -0.15547768771648407
-0.08514891564846039 -0.005762845277786255 -0.03268272057175636
0.2411170601844788 -0.01523067057132721 -0.08637742698192596
-0.03233034163713455 -0.04039263352751732 -0.22907800972461703
-0.9973974227905273 -0.10305098444223404 -0.5844311714172363
-2.811269998550415 -0.2100348621606827 -1.191166877746582
-4.674464225769043 -0.3118336796760559 -1.7684966325759888
-6.551443099975586 -0.4017254710197449 -2.2782983779907227
-8.916523933410645 -0.4948551952838897 -2.8064632415771484
-11.407364845275879 -0.58531254529953 -3.3194725513458248
-13.128816604614258 -0.6340352892875671 -3.5957927703857417
-14.29935359954834 -0.6559712290763855 -3.7201976776123047
-15.064237594604492 -0.6659584045410156 -3.7768378257751465
-15.58475112915039 -0.6623058915138245 -3.756123304367065
-16.02033042907715 -0.6561569571495056 -3.7212510108947754
-16.114667892456055 -0.6270079016685486 -3.555938482284546
-16.16474723815918 -0.6015492081642151 -3.4115550518035893
-16.218582153320312 -0.5741880536079407 -3.2563822269439693
-15.805582046508789 -0.5367478728294373 -3.044048547744751
-15.664817810058594 -0.5154143571853638 -2.9230599403381348
-15.523506164550781 -0.49359050393104553 -2.799290895462036
-15.621834754943848 -0.4716230630874633 -2.6747071743011475
-15.813748359680174 -0.46448725461959844 -2.6342382431030273
-16.072830200195312 -0.44473996758461 -2.5222456455230713
-16.421934127807617 -0.4325895607471466 -2.4533374309539795
-16.68494987487793 -0.42184421420097346 -2.392397403717041
-17.235395431518555 -0.4145589470863342 -2.3510806560516357
-17.693309783935547 -0.40120041370391846 -2.275320529937744
-18.60707664489746 -0.3918190598487854 -2.222116231918335
-18.836885452270508 -0.372622013092041 -2.1132445335388184
-19.084060668945312 -0.3519025146961212 -1.9957382678985596
-19.23126983642578 -0.3291758596897125 -1.8668490648269653
-19.454647064208984 -0.3003588318824768 -1.7034196853637695
-19.250511169433594 -0.28718119859695435 -1.6286854743957517
-18.98854637145996 -0.2674047648906708 -1.516527771949768
-18.634538650512695 -0.25203707814216614 -1.4293732643127441
-17.882999420166016 -0.2385399341583252 -1.3528271913528442
-17.289026260375977 -0.23230710625648499 -1.317479133605957
-16.59215545654297 -0.22428520023822784 -1.271984577178955
-15.877961158752443 -0.2160881757736206 -1.2254968881607056
-14.445958137512207 -0.20217977464199066 -1.1466184854507446
-12.713369369506836 -0.20066756010055542 -1.1380422115325928
-10.755624771118164 -0.2165613025426865 -1.228180170059204
-9.08672046661377 -0.24652767181396484 -1.3981279134750366
-7.474794387817382 -0.2650717794895172 -1.5032967329025269
-6.13010835647583 -0.2687284052371979 -1.5240345001220703
-4.834287166595459 -0.26510438323020935 -1.5034816265106201
-3.4206378459930424 -0.2638269364833832 -1.496236801147461
-1.9758255481719973 -0.2705606520175934 -1.5344257354736328