# vtk DataFile Version 4.0
 
ASCII
DATASET UNSTRUCTURED_GRID
POINTS 152 float
0.0018916144324157278 -0.007970722842906267 -0.0062400000000001985
0.0010688609733395774 -0.008980725727208512 -0.010376727272727579
0.00045780959861706216 -0.00999006999094912 -0.01443747384044568
-0.00013255382275044122 -0.010861711113996387 -0.0184222397031545
-0.0007201482309470062 -0.011653188525702131 -0.022331024860854046
-0.0011946371146526612 -0.012214919606059802 -0.026163829313544305
-0.0014108622120167862 -0.012243082475887708 -0.029920653061225287
-0.0013224843579428829 -0.011990961980962507 -0.03360149610389699
-0.0010167791708201568 -0.011828261772846488 -0.037206358441559416
-0.0006138083932142036 -0.011507702748091486 -0.040735240074212566
-0.00020084691410191335 -0.011143465915482582 -0.04418814100185643
0.0001698744379422134 -0.010878997657339587 -0.04756506122449102
0.0004739400232210948 -0.010640632802007322 -0.05086600074211633
0.0007082255455298663 -0.010346566253431824 -0.05409095955473236
0.0008836440760600275 -0.010008554363767217 -0.05723993766233912
0.001017516815515788 -0.00968583801505301 -0.06031293506493659
0.0011275777072549662 -0.00943267615491927 -0.06330995176252478
0.0012277625198140337 -0.009262627687512879 -0.06623098775510369
0.00132638558954348 -0.009141867324371661 -0.06907604304267334
0.0014271324949937316 -0.009020570687082535 -0.07184511762523371
0.0015306083418583354 -0.008865847309345783 -0.0745382115027848
0.0016355657532635378 -0.008676950628718863 -0.07715532467532663
0.0017398364473795213 -0.008474019422467465 -0.07969645714285915
0.0018410131526058282 -0.008280348615762987 -0.0821616089053824
0.001936923789896676 -0.008113058942476888 -0.08455077996289638
0.0020259353317291845 -0.007981713205622347 -0.08686397031540109
0.0021071205190511294 -0.007888840422161137 -0.0891011799628965
0.002180316672546981 -0.00783078937754857 -0.09126240890538265
0.0022461021518325993 -0.0077987897358600625 -0.09334765714285952
0.0023056987632523672 -0.0077802695809831976 -0.09535692467532711
0.0023607022647827588 -0.00776149686403097 -0.09729021150278541
0.0024126938092907785 -0.007731126125785235 -0.09914751762523444
0.0024629658139780817 -0.007682454769655024 -0.10092884304267419
0.0025123806343549317 -0.0076142786651793685 -0.10263418775510465
0.0025613283706516186 -0.00753073258585731 -0.10426355176252584
0.0026097549007438213 -0.007440443484173019 -0.10581693506493776
0.0026572361369983943 -0.007355257096399941 -0.10729433766234044
0.002703078927872171 -0.0072879051090335495 -0.10869575955473378
0.0027464329900004744 -0.007246391357823514 -0.11002120074211785
0.0027864017842759935 -0.007229338842746269 -0.11127066122449267
0.0028221433614242725 -0.007225531401886441 -0.1124441410018582
0.0028529549202113143 -0.007216296621747959 -0.11354164007421444
0.002878337166053322 -0.00717869274847933 -0.11456315844156138
0.0028980365508205295 -0.007084491167077314 -0.1155086961038991
0.0029120651374179955 -0.006898876813744374 -0.1163782530612275
0.002920699186668212 -0.006586382762022437 -0.11717182931354662
0.0029244586304951574 -0.0061203399098719025 -0.11788942486085649
0.002924070395798875 -0.005491586485335912 -0.11853103970315705
0.0029204190990956736 -0.004713960763227454 -0.11909667384044835
0.0029144889643634465 -0.0038255118951111646 -0.11958632727273037
0.002907300946956263 -0.0028854209800884922 -0.12000000000000309
0.006212993241944028 0.006624596458664242 -0.006240000000000116
0.0072288922610571306 0.00967690595877492 -0.010376727272727473
0.007974780507892725 0.011220007941271348 -0.014437473840445561
0.008270023946844132 0.01181677903056486 -0.018422239703154375
0.008140225139500825 0.011728644664363 -0.022331024860853914
0.007751519283975376 0.0113401134626646 -0.026163829313544176
0.007318662739924205 0.011120179970235884 -0.029920653061225155
0.0069707766105224795 0.01092561953791483 -0.033601496103896865
0.006702226685381192 0.010460765629955002 -0.03720635844155929
0.006460614097576536 0.010026837972280885 -0.04073524007421245
0.006208498480286784 0.009551985470050777 -0.044188141001856314
0.005928720355726676 0.008926331555274412 -0.04756506122449091
0.00562110152420414 0.008249862663074396 -0.050866000742116224
0.005297776270156929 0.007625077930424911 -0.05409095955473226
0.004977662142563614 0.007056502841290579 -0.05723993766233903
0.004680078492205027 0.0064977883311009375 -0.0603129350649365
0.0044193472589770496 0.005905106467344252 -0.0633099517625247
0.0042022226504668725 0.005273379967066496 -0.06623098775510361
0.004028605706719037 0.004643060071347112 -0.06907604304267327
0.003894567528214928 0.00406860465252323 -0.07184511762523364
0.003794542923454683 0.003585620959111956 -0.07453821150278474
0.0037223892098821663 0.0031958955766687265 -0.07715532467532656
0.0036720478837599236 0.0028789005077097473 -0.07969645714285908
0.0036379885391020494 0.002609754709345475 -0.08216160890538235
0.003615480687410345 0.0023687732516249893 -0.08455077996289632
0.003600729157216099 0.0021430568875694476 -0.08686397031540102
0.0035909263662617956 0.0019261568245899766 -0.08910117996289645
0.003584242976167935 0.0017173936077637597 -0.09126240890538259
0.00357976601221264 0.0015209533072249152 -0.09334765714285946
0.003577378730160166 0.0013447127937769897 -0.09535692467532705
0.0035774796054096774 0.0011977259539048962 -0.09729021150278536
0.003580588564800478 0.0010867890628816549 -0.0991475176252344
0.0035870678637920984 0.0010142810776944135 -0.10092884304267415
0.0035969747054953923 0.0009773887341320642 -0.1026341877551046
0.0036100119296844893 0.0009683307904533468 -0.10426355176252583
0.0036255480079795204 0.0009752535776851533 -0.10581693506493775
0.0036426825552804717 0.000983537815082556 -0.10729433766234037
0.0036603380175139954 0.000978150165523252 -0.10869575955473373
0.003677362157174432 0.0009492619879886275 -0.1100212007421178
0.0036926294639041822 0.0008968946190591165 -0.11127066122449261
0.0037051326977571345 0.0008313586089183657 -0.11244414100185814
0.003714058455611533 0.0007708417230245114 -0.11354164007421437
0.003718842962038476 0.0007381844222519015 -0.11456315844156137
0.003719206248598144 0.000761852790364427 -0.11550869610389905
0.003715164522496519 0.0008771881100303983 -0.11637825306122744
0.0037070218583473346 0.0011204184172995421 -0.11717182931354661
0.003695343396461056 0.0015191526576754256 -0.11788942486085645
0.003680913018392471 0.0020836142337070304 -0.11853103970315704
0.0036646790161518838 0.0028010919958689723 -0.1190966738404483
0.003647691596346039 0.003634675136544265 -0.11958632727273033
0.0036310361855396924 0.004526281122627782 -0.12000000000000305
0.005410766489344848 0.003994132335275339 -0.008308363636363818
0.005892211109850776 0.005464993247747648 -0.012407100556586547
0.006132458642509649 0.006032322476320389 -0.0164298567718
0.006047255650667177 0.0060151714306356345 -0.020376632282004176
0.005720055990603616 0.005667270781165107 -0.024247427087199076
0.005325630843128663 0.005365359777094243 -0.028042241187384704
0.005016871435172548 0.00523791925845024 -0.03176107458256105
0.004834968294868498 0.005042491468725061 -0.035403927272728106
0.004732241848104854 0.0047658557857212114 -0.0389707992578859
0.00464908530328423 0.0045106627079276145 -0.04246169053803441
0.004547585503985086 0.004176560937894174 -0.04587660111317364
0.004411660012619469 0.0037511190244624393 -0.0492155309833036
0.004242349868979272 0.0033297028406323466 -0.05247848014842427
0.00405227310746894 0.00296120271224343 -0.05566544860853567
0.003859297849485217 0.002621060142294289 -0.05877643636363778
0.0036804214720396232 0.0022612712781704125 -0.061811443413730634
0.003527506244425096 0.0018550194326000104 -0.06477046975881418
0.003405829147614405 0.0014181031379195358 -0.06765351539888848
0.003315379723667389 0.0009965695200196023 -0.07046058033395348
0.003253134023982613 0.0006345323548096551 -0.07319166456400922
0.003214621311891553 0.000350218958659675 -0.07584676808905567
0.0031948391851961662 0.00013417727524363593 -0.07842589090909284
0.0031888698585714084 -3.6050298383097834e-5 -0.08092903302412074
0.0031922930777549615 -0.00018222795941606168 -0.08335619443413936
0.003201436081938149 -0.00031991021631449086 -0.0857073751391487
0.0032135028026517493 -0.00045786406141315163 -0.08798257513914876
0.003226618152360912 -0.0005986223128310631 -0.09018179443413954
0.0032398057236901635 -0.0007393172960553254 -0.09230503302412105
0.003252904392775423 -0.0008727576267296936 -0.09435229090909328
0.003266372004343082 -0.0009893062752460637 -0.09632356808905622
0.0032809500730880004 -0.0010798847424320689 -0.0982188645640099
0.0032973286136308236 -0.001138796309214006 -0.10003818033395429
0.0033159342695244357 -0.0011652154999193705 -0.10178151539888941
0.0033368336138182735 -0.001163481584660056 -0.10344886975881525
0.0033597203855484335 -0.0011425528707018537 -0.10504024341373179
0.0033839603409402744 -0.001114915800283729 -0.10655563636363907
0.003408672097906746 -0.0010947622829520088 -0.10799504860853706
0.0034328265552422406 -0.0010940075007901783 -0.1093584801484258
0.0034553512046890385 -0.0011171575474283194 -0.11064593098330525
0.003475228953835527 -0.001158763820087533 -0.1118574011131754
0.0034915839677176984 -0.001204403378475721 -0.11299289053803628
0.0035037495424018335 -0.0012334888667997568 -0.11405239925788788
0.0035113151685979642 -0.0012203840347134575 -0.11503592727273024
0.003514151750190315 -0.0011332806599546523 -0.11594347458256327
0.003512415433327221 -0.0009365549992221241 -0.11677504118738703
0.0035065316976985676 -0.0005985011808711795 -0.11753062708720154
0.0034971622838568268 -0.00010045321513255554 -0.11821023228200674
0.003485158199815951 0.0005560714300205801 -0.11881385677180269
0.0034715024876191118 0.0013459785923626362 -0.11934150055658933
0.003457246657122113 0.002221491987789561 -0.11979316363636672

CELLS 100 350
4 0 51 52 1
4 1 52 53 2
4 2 53 54 3
4 3 54 55 4
4 4 55 56 5
4 5 56 57 6
4 6 57 58 7
4 7 58 59 8
4 8 59 60 9
4 9 60 61 10
4 10 61 62 11
4 11 62 63 12
4 12 63 64 13
4 13 64 65 14
4 14 65 66 15
4 15 66 67 16
4 16 67 68 17
4 17 68 69 18
4 18 69 70 19
4 19 70 71 20
4 20 71 72 21
4 21 72 73 22
4 22 73 74 23
4 23 74 75 24
4 24 75 76 25
4 25 76 77 26
4 26 77 78 27
4 27 78 79 28
4 28 79 80 29
4 29 80 81 30
4 30 81 82 31
4 31 82 83 32
4 32 83 84 33
4 33 84 85 34
4 34 85 86 35
4 35 86 87 36
4 36 87 88 37
4 37 88 89 38
4 38 89 90 39
4 39 90 91 40
4 40 91 92 41
4 41 92 93 42
4 42 93 94 43
4 43 94 95 44
4 44 95 96 45
4 45 96 97 46
4 46 97 98 47
4 47 98 99 48
4 48 99 100 49
4 49 100 101 50
1 102
1 103
1 104
1 105
1 106
1 107
1 108
1 109
1 110
1 111
1 112
1 113
1 114
1 115
1 116
1 117
1 118
1 119
1 120
1 121
1 122
1 123
1 124
1 125
1 126
1 127
1 128
1 129
1 130
1 131
1 132
1 133
1 134
1 135
1 136
1 137
1 138
1 139
1 140
1 141
1 142
1 143
1 144
1 145
1 146
1 147
1 148
1 149
1 150
1 151

CELL_TYPES 100
7
7
7
7
7
7
7
7
7
7
7
7
7
7
7
7
7
7
7
7
7
7
7
7
7
7
7
7
7
7
7
7
7
7
7
7
7
7
7
7
7
7
7
7
7
7
7
7
7
7
7
7
7
7
7
7
7
7
7
7
7
7
7
7
7
7
7
7
7
7
7
7
7
7
7
7
7
7
7
7
7
7
7
7
7
7
7
7
7
7
7
7
7
7
7
7
7
7
7
7

POINT_DATA 152

VECTORS centroid-point-cyl-mean float
0.01012274778103406 1.782250146552e-20 -0.0018916144324157276
0.013723334269772543 -3.2674586020109995e-20 -0.0010688609733395791
0.01755682628830211 -3.842976878502e-20 -0.00045780959861706216
0.02138587580634455 6.831958895114e-20 0.00013255382275044122
0.025188717199405672 5.643792130746e-20 0.0007201482309470067
0.02887473333782987 4.641276423e-23 0.001194637114652661
0.032328602631750046 2.2575168522986e-19 0.001410862212016788
0.03567693526144158 2.2575168522986e-19 0.0013224843579428827
0.039041271560347215 -1.4258001172412e-19 0.001016779170820158
0.04232950515234221 -4.604146211925e-20 0.0006138083932142042
0.045571577082754756 -1.336687609914e-20 0.00020084691410191327
0.04879331551880828 -3.3268669402294996e-19 -0.00016987443794221364
0.0519670385718114 -3.8021336459766e-19 -0.0004739400232210948
0.05507162008501608 9.505334114940999e-20 -0.0007082255455298658
0.05810836105106523 3.564500293103e-20 -0.0008836440760600286
0.06108572332551273 1.633729301006e-20 -0.0010175168155157888
0.06400879136194337 -3.564500293103e-20 -0.001127577707254967
0.0668755561524102 -2.376333528735e-20 -0.0012277625198140328
0.06967835718937174 1.6634334701147e-19 -0.0013263855895434818
0.0724091957012665 1.3663917790228e-19 -0.0014271324949937342
0.07506362782697436 3.089233587356e-19 -0.0015306083418583358
0.077641700122861 -1.3069834408043998e-19 -0.0016355657532635395
0.0801457065992679 3.3268669402294996e-19 -0.0017398364473795195
0.08257780664996851 4.7229628883615e-19 -0.0018410131526058295
0.08493913184003138 9.505334114940999e-20 -0.0019369237898966799
0.08722990934680411 6.7576984723412e-19 -0.0020259353317291814
0.0894497293119816 5.2242207420791e-19 -0.0021071205190511277
0.09159775401989285 4.789797268857e-20 -0.002180316672546979
0.09367286808572149 3.787281561422e-19 -0.002246102151832601
0.09567379828505179 1.4406522017958e-19 -0.0023056987632523703
0.09759931397211295 -2.4951502051721e-19 -0.0023607022647827614
0.09944848195130447 -8.554800703447299e-19 -0.002412693809290776
0.10122080551556854 2.4951502051721e-19 -0.002462965813978083
0.10291624621866612 8.614209041665999e-20 -0.002512380634354936
0.10453516231114085 -8.317167350574e-20 -0.0025613283706516212
0.10607819731584071 3.1189377564652e-19 -0.0026097549007438243
0.10754615149485576 -2.376333528735e-20 -0.002657236136998393
0.10893980771994567 0.0 -0.002703078927872168
0.11025957917772099 -5.3467504396549995e-20 -0.0027464329900004714
0.11150526171189865 -8.317167350574e-20 -0.002786401784275997
0.11267605402074299 1.6634334701147e-19 -0.0028221433614242764
0.11377072983713984 9.0300674091943e-19 -0.0028529549202113143
0.11478785171647471 5.7626088071832e-19 -0.0028783371660533194
0.1157257486072971 5.940833821838e-20 -0.0028980365508205273
0.11658255567139683 -1.1287584261493e-19 -0.002912065137417993
0.11735679793932167 2.5545585433905e-19 -0.0029206991866682092
0.11804818954408353 -4.5150337045972e-19 -0.002924458630495155
0.11865818511690324 8.317167350574e-20 -0.002924070395798873
0.11918992887796939 9.505334114940999e-20 -0.002920419099095677
0.11964749981441415 -2.019883499425e-19 -0.002914488964363444
0.12003468521320444 -1.782250146552e-20 -0.0029073009469562645
0.009100707568104157 1.336687609914e-20 -0.006212993241944024
0.014188691899803181 1.930770992097e-20 -0.007228892261057122
0.018284671971237065 -7.871604813936e-20 -0.007974780507892725
0.021886415474848174 1.633729301006e-20 -0.00827002394684413
0.025223714575751243 -5.94083382184e-21 -0.008140225139500822
0.028515682311569934 0.0 -0.007751519283975376
0.031920273842507015 3.564500293103e-20 -0.007318662739924207
0.03533312472323188 -5.94083382184e-21 -0.0069707766105224795
0.03864894210772969 2.3540554019034997e-19 -0.006702226685381185
0.04195112946782363 -1.9307709920975e-19 -0.0064606140975765345
0.045208762774709865 3.3268669402294996e-19 -0.006208498480286776
0.048395396933223395 -1.6040251318964e-19 -0.0059287203557266705
0.05153067305456586 -4.7526670574709996e-20 -0.005621101524204141
0.054625760580487494 -2.4654460360628997e-19 -0.005297776270156929
0.05767325806591471 -2.970416910919e-20 -0.004977662142563618
0.06066194350120212 2.168404344971e-19 -0.004680078492205029
0.06358474875757458 -1.9084928652655999e-19 -0.004419347258977046
0.0664405920751294 1.336687609914e-20 -0.004202222650466876
0.06923191265059336 -1.7822501465514998e-19 -0.004028605706719036
0.07196022839320465 2.3763335287353997e-19 -0.0038945675282149313
0.07462440386158065 -1.9604751612066999e-19 -0.0037945429234546822
0.07722148583323186 -2.9110085727008e-19 -0.0037223892098821616
0.07974843791107668 -4.7526670574709996e-20 -0.003672047883759917
0.08220304615745071 0.0 -0.003637988539102048
0.08458395521049918 -5.2279337632178e-19 -0.0036154806874103503
0.08689040241464076 -3.5050919548845997e-19 -0.003600729157216099
0.08912199700911863 -3.3268669402294996e-19 -0.003590926366261794
0.09127856659707831 2.1387001758618e-19 -0.0035842429761679374
0.09336004709201685 -2.6436710507181e-19 -0.0035797660122126383
0.09536640569945853 -2.792191896264e-19 -0.0035773787301601693
0.09729758374038577 1.3663917790228e-19 -0.0035774796054096818
0.09915347377532145 2.376333528735e-20 -0.0035805885648004785
0.10093393940611507 2.792191896264e-19 -0.0035870678637920945
0.1026388415020731 -1.2178709334768998e-19 -0.0035969747054953897
0.1042680482729806 -1.6485813855602e-19 -0.0036100119296844906
0.10582142914399734 9.208292423848999e-20 -0.0036255480079795187
0.1072988454785699 4.6041462119247e-19 -0.0036426825552804704
0.1087001606389189 7.752788137499099e-19 -0.0036603380175139967
0.11002529577810366 -2.8813044035916e-19 -0.0036773621571744327
0.11127427586506022 4.5150337045972e-19 -0.0036926294639041896
0.11244721429534103 -2.2129605986348e-19 -0.003705132697757131
0.1135442566918484 -4.9011879030169994e-20 -0.003714058455611533
0.1145655366519423 -4.0397669988501e-19 -0.003718842962038474
0.11551120852669254 -1.48520845546e-21 -0.0037192062485981426
0.11638155886807595 -3.0595294182468e-19 -0.003715164522496519
0.11717718601379996 -1.9604751612066999e-19 -0.0037070218583473346
0.11789921254538059 -4.0991753370685e-19 -0.0036953433964610535
0.11854935183874381 2.3763335287353997e-19 -0.0036809130183924677
0.11912960940180822 3.2674586020110997e-19 -0.003664679016151886
0.11964155019861944 6.831958895114099e-19 -0.0036476915963460374
0.1200853330794472 2.9704169109191997e-19 -0.0036310361855396954
0.009218568187400076 1.11390634159e-21 -0.005410766489344852
0.013557370520096337 -4.010062829741e-20 -0.005892211109850776
0.017502260082634533 -8.91125073276e-21 -0.006132458642509653
0.02124592738611211 -7.72308396839e-20 -0.0060472556506671726
0.024900917221180485 -6.386396358475999e-20 -0.005720055990603614
0.02855090850304266 -2.019883499425e-19 -0.005325630843128662
0.03219008631235788 -7.574563122843999e-20 -0.005016871435172545
0.03576121903046348 1.0396459188216999e-19 -0.004834968294868498
0.03926113314932122 1.4852084554595998e-19 -0.00473224184810485
0.042700600012324105 5.495271285200999e-20 -0.004649085303284229
0.04606632382733817 3.3862752784479e-19 -0.004547585503985091
0.0493582757387675 3.3862752784479e-19 -0.004411660012619467
0.05258400707149923 -3.9209503224132996e-19 -0.0042423498689792725
0.05574415566041453 1.396095948132e-19 -0.0040522731074689395
0.05883484875376402 3.9803586606317e-19 -0.00385929784948522
0.06185279205243928 1.3663917790228e-19 -0.003680421472039621
0.06479702809444883 9.208292423848999e-20 -0.0035275062444250996
0.06766837638319248 4.7526670574709996e-20 -0.0034058291476143994
0.07046762754489289 -6.7725505568958e-19 -0.0033153797236673854
0.07319441503939854 3.7724294768673997e-19 -0.0032531340239826127
0.07584757664470225 3.5273700817165e-19 -0.003214621311891548
0.07842600568960614 -2.4951502051721e-19 -0.0031948391851961684
0.08092904105352554 -4.752667057470699e-19 -0.003188869858571412
0.08335639362143264 4.1548706541482e-19 -0.0031922930777549597
0.08570797218339288 -8.688469464439e-20 -0.0032014360819381522
0.08798376650050092 2.8218960653731996e-19 -0.0032135028026517524
0.09018378122497862 -2.6139668816089e-19 -0.0032266181523609144
0.0923079937581157 1.2921313562498e-19 -0.0032398057236901682
0.09435632732185582 -4.960596241235e-19 -0.0032529043927754233
0.09632864836751992 2.7624877271547997e-19 -0.003266372004343078
0.09822480087686723 -7.129000586206e-20 -0.003280950073088005
0.10004466193437112 1.6337293010056e-19 -0.003297328613630827
0.10178818499244188 2.168404344971e-19 -0.00331593426952443
0.10345541234645067 -7.129000586206e-20 -0.003336833613818278
0.1050464571676662 5.4655671160913e-19 -0.003359720385548436
0.10656146901249912 -2.792191896264e-19 -0.0033839603409402696
0.10800059735212802 3.089233587356e-19 -0.003408672097906742
0.10936395216334031 -3.8615419841948997e-19 -0.00343282655524224
0.1106515706357037 4.544737873706399e-19 -0.003455351204689038
0.1118634029403029 2.8516002344824e-19 -0.003475228953835529
0.1129993092883259 -7.1587047553152e-19 -0.003491583967717702
0.11405906921970382 -7.633971461062299e-19 -0.003503749542401839
0.11504240044735253 -7.3072256008612e-19 -0.003511315168597961
0.1159490130330212 1.4258001172412e-19 -0.0035141517501903184
0.11677879678941068 5.4507150315367e-19 -0.0035124154333272244
0.11753215095102403 2.8516002344824e-19 -0.003506531697698571
0.11821027496378815 2.1405566864311e-19 -0.0034971622838568263
0.11881515802466326 4.0991753370685e-19 -0.0034851581998159562
0.11934909054311856 4.9903004103442e-19 -0.0034715024876191066
0.11981375998048448 2.5545585433905e-19 -0.0034572466571221095

VECTORS centroid-point-mean float
0.0018916144324157276 -0.00010918798414939654 -8.547945205479621e-5
0.0010688609733395791 -0.0001230236400987426 -0.0001421469489414741
0.00045780959861706216 -0.00013685027384861243 -0.00019777361425268048
-0.00013255382275044122 -0.00014879056320542386 -0.000252359447988419
-0.0007201482309470067 -0.00015963271953015453 -0.00030590445014868825
-0.001194637114652661 -0.00016732766583642825 -0.00035840862073348393
-0.001410862212016788 -0.00016771345857379872 -0.0004098719597428155
-0.0013224843579428827 -0.00016425975316385636 -0.0004602944671766735
-0.001016779170820158 -0.00016203098318967095 -0.0005096761430350635
-0.0006138083932142042 -0.00015763976367247747 -0.0005580169873179766
-0.00020084691410191327 -0.00015265021802030152 -0.0006053170000254282
0.00016987443794221364 -0.0001490273651690275 -0.0006515761811574144
0.0004739400232210948 -0.0001457620931781743 -0.0006967945307139203
0.0007082255455298658 -0.00014173378429356922 -0.0007409720486949677
0.0008836440760600286 -0.00013710348443514547 -0.0007841087351005423
0.0010175168155157888 -0.00013268271253495475 -0.0008262045899306425
0.001127577707254967 -0.00012921474184819008 -0.0008672596131852773
0.0012277625198140328 -0.0001268853107878381 -0.0009072738048644361
0.0013263855895434818 -0.0001252310592379569 -0.0009462471649681299
0.0014271324949937342 -0.0001235694614668742 -0.0009841796934963536
0.0015306083418583358 -0.00012144996314170762 -0.001021071390449111
0.0016355657532635395 -0.00011886233737969847 -0.0010569222558263966
0.0017398364473795195 -0.00011608245784200349 -0.0010917322896282122
0.0018410131526058295 -0.00011342943309262876 -0.001125501491854558
0.0019369237898966799 -0.00011113779373255154 -0.0011582298625054323
0.0020259353317291814 -0.00010933853706331192 -0.0011899174015808439
0.0021071205190511277 -0.00010806630715287635 -0.0012205641090807795
0.002180316672546979 -0.00010727108736367238 -0.0012501699850052434
0.002246102151832601 -0.00010683273610765085 -0.0012787350293542454
0.0023056987632523703 -0.00010657903535590291 -0.0013062592421277778
0.0023607022647827614 -0.00010632187484972148 -0.0013327426233258343
0.002412693809290776 -0.00010590583733951222 -0.0013581851729484204
0.002462965813978083 -0.00010523910643360969 -0.001382586890995542
0.002512380634354936 -0.00010430518719423126 -0.0014059477774671907
0.0025613283706516212 -0.00010316072035418221 -0.0014282678323633696
0.0026097549007438243 -0.0001019238833448233 -0.0014495470556840867
0.002657236136998393 -0.00010075694652600716 -0.001469785447429321
0.002703078927872168 -9.983431656208859e-5 -0.0014889830075990999
0.0027464329900004714 -9.926563503865733e-5 -0.001507139736193403
0.002786401784275997 -9.903203894170711e-5 -0.0015242556332122324
0.0028221433614242764 -9.897988221761925e-5 -0.0015403306986555977
0.0028529549202113143 -9.885337838009945e-5 -0.0015553649325234923
0.0028783371660533194 -9.833825682845361e-5 -0.00156935833481592
0.0028980365508205273 -9.704782420652538e-5 -0.0015823109055328726
0.002912065137417993 -9.450516183210085e-5 -0.0015942226446743549
0.0029206991866682092 -9.022442139752839e-5 -0.0016050935522403638
0.002924458630495155 -8.384027273795315e-5 -0.0016149236282309216
0.002924070395798873 -7.522721212785436e-5 -0.0016237128726459926
0.002920419099095677 -6.457480497569467e-5 -0.001631461285485602
0.002914488964363444 -5.240427253575963e-5 -0.0016381688667497314
0.0029073009469562645 -3.9526314795707365e-5 -0.0016438356164384042
0.006212993241944024 9.074789669403012e-5 -8.547945205479643e-5
0.007228892261057122 0.00013256035559965442 -0.00014214694894147355
0.007974780507892725 0.0001536987389215209 -0.00019777361425268202
0.00827002394684413 0.00016187368535020336 -0.0002523594479884197
0.008140225139500822 0.00016066636526524615 -0.0003059044501486852
0.007751519283975376 0.0001553440200365003 -0.00035840862073348474
0.007318662739924207 0.00015233123246899015 -0.0004098719597428085
0.0069707766105224795 0.00014966602106732826 -0.0004602944671766706
0.006702226685381185 0.00014329815931445517 -0.0005096761430350607
0.0064606140975765345 0.000137353944825769 -0.000558016987317985
0.006208498480286776 0.00013084911602809536 -0.0006053170000254346
0.0059287203557266705 0.00012227851445582082 -0.0006515761811574104
0.005621101524204141 0.00011301181730239877 -0.0006967945307139217
0.005297776270156929 0.00010445312233459606 -0.000740972048694966
0.004977662142563618 9.666442248343038e-5 -0.0007841087351005347
0.004680078492205029 8.901079905618442e-5 -0.0008262045899306428
0.004419347258977046 8.089186941567618e-5 -0.000867259613185278
0.004202222650466876 7.22380817406452e-5 -0.0009072738048644386
0.004028605706719036 6.36035626212061e-5 -0.0009462471649681343
0.0038945675282149313 5.5734310308548644e-5 -0.0009841796934963558
0.0037945429234546822 4.911809533030875e-5 -0.00102107139044911
0.0037223892098821616 4.377939146122817e-5 -0.0010569222558263907
0.003672047883759917 3.943699325631335e-5 -0.0010917322896282127
0.003637988539102048 3.5750064511593016e-5 -0.0011255014918545635
0.0036154806874103503 3.244894865241651e-5 -0.001158229862505438
0.003600729157216099 2.9356943665338913e-5 -0.001189917401580844
0.003590926366261794 2.638570992590304e-5 -0.0012205641090807808
0.0035842429761679374 2.352593983239353e-5 -0.0012501699850052494
0.0035797660122126383 2.0834976811322998e-5 -0.0012787350293542356
0.0035773787301601693 1.8420723202440225e-5 -0.0013062592421277724
0.0035774796054096818 1.640720484802929e-5 -0.0013327426233258296
0.0035805885648004785 1.4887521409345962e-5 -0.0013581851729484182
0.0035870678637920945 1.3894261338296579e-5 -0.001382586890995541
0.0035969747054953897 1.3388886768946979e-5 -0.00140594777746719
0.0036100119296844906 1.3264805348683279e-5 -0.0014282678323633779
0.0036255480079795187 1.335963805049246e-5 -0.0014495470556840858
0.0036426825552804704 1.3473120754565567e-5 -0.0014697854474293225
0.0036603380175139967 1.3399317335943726e-5 -0.0014889830075990962
0.0036773621571744327 1.3003588876571416e-5 -0.0015071397361934016
0.0036926294639041896 1.2286227658350788e-5 -0.0015242556332122374
0.003705132697757131 1.1388474094796277e-5 -0.0015403306986556012
0.003714058455611533 1.05594756578829e-5 -0.0015553649325234945
0.003718842962038474 1.0112115373329926e-5 -0.001569358334815917
0.0037192062485981426 1.0436339594052282e-5 -0.0015823109055328754
0.003715164522496519 1.2016275479881373e-5 -0.0015942226446743534
0.0037070218583473346 1.534819749727539e-5 -0.0016050935522403727
0.0036953433964610535 2.0810310379132076e-5 -0.0016149236282309227
0.0036809130183924677 2.8542660735729068e-5 -0.0016237128726459967
0.003664679016151886 3.837112323109892e-5 -0.0016314612854856012
0.0036476915963460374 4.9790070363648084e-5 -0.0016381688667497377
0.0036310361855396954 6.200385099493561e-5 -0.0016438356164384064
0.005410766489344852 5.471414157911442e-5 -0.00011381320049813517
0.005892211109850776 7.486292120202352e-5 -0.00016996028159707745
0.006132458642509653 8.263455447014236e-5 -0.00022506653112054967
0.0060472556506671726 8.239960863884517e-5 -0.0002791319490685513
0.005720055990603614 7.76338463173302e-5 -0.0003321565354410864
0.005325630843128662 7.349807913827716e-5 -0.000384140290238149
0.005016871435172545 7.175231860890933e-5 -0.0004350832134597446
0.004834968294868498 6.907522559897261e-5 -0.0004849853051058675
0.00473224184810485 6.528569569481684e-5 -0.0005338465651765201
0.004649085303284229 6.178990010860073e-5 -0.0005816669936717099
0.004547585503985091 5.721316353280762e-5 -0.0006284465905914235
0.004411660012619467 5.138519211593339e-5 -0.0006741853559356686
0.0042423498689792725 4.5612367679904355e-5 -0.0007188832897044423
0.0040522731074689395 4.05644207156624e-5 -0.0007625403918977497
0.00385929784948522 3.5904933456092994e-5 -0.0008051566625155896
0.003680421472039621 3.097631887905553e-5 -0.0008467321015579563
0.0035275062444250996 2.5411225104117585e-5 -0.0008872667090248614
0.0034058291476143994 1.9426070382468686e-5 -0.0009267604849162829
0.0033153797236673854 1.3651637260554725e-5 -0.000965213429232246
0.0032531340239826127 8.692224038505464e-6 -0.0010026255419727321
0.003214621311891548 4.797519981645372e-6 -0.0010389968231377552
0.0031948391851961684 1.838044866362322e-6 -0.0010743272727273064
0.003188869858571412 -4.938397038647213e-7 -0.0011086168907413852
0.0031922930777549597 -2.496273416658427e-6 -0.0011418656771800004
0.0032014360819381522 -4.382331730321483e-6 -0.0011740736320431414
0.0032135028026517524 -6.272110430306773e-6 -0.0012052407553308061
0.0032266181523609144 -8.200305655208232e-6 -0.0012353670470430143
0.0032398057236901682 -1.0127634192522035e-5 -0.0012644525071797469
0.0032529043927754233 -1.1955583927769398e-5 -0.001292497135741011
0.003266372004343078 -1.3552140756786245e-5 -0.0013195009327268048
0.003280950073088005 -1.4792941677141649e-5 -0.0013454638981371335
0.003297328613630827 -1.559994944127377e-5 -0.0013703860319719788
0.00331593426952443 -1.5961856163260322e-5 -0.0013942673342313638
0.003336833613818278 -1.5938103899452558e-5 -0.0014171078049152802
0.003359720385548436 -1.5651409187671888e-5 -0.0014389074440237235
0.0033839603409402696 -1.527281918195197e-5 -0.0014596662515566974