# vtk DataFile Version 4.0
 
ASCII
DATASET UNSTRUCTURED_GRID
POINTS 51 float
0.002971959134797803 -0.004321893017513639 -0.006240000000000178
0.0026088687952689656 -0.004316317805712655 -0.010376727272727551
0.002337052325935978 -0.004687550507894003 -0.014437473840445648
0.001968090619648202 -0.005192088577856075 -0.01842223970315447
0.0014949451116649517 -0.005807730228185849 -0.02233102486085401
0.001041901985004348 -0.006326161338878701 -0.026163829313544273
0.0007715190259684618 -0.006402266864356811 -0.029920653061225256
0.0007508308841734576 -0.006261816601243173 -0.033601496103896955
0.0009129722932301809 -0.0062560049221461154 -0.03720635844155938
0.0011547972294834814 -0.006124067567998393 -0.04073524007421254
0.001401489434495261 -0.005969603069099242 -0.044188141001856404
0.0016095859173883291 -0.005927665354186088 -0.047565061224490994
0.001760730398466856 -0.005918008935736892 -0.05086600074211631
0.001855613226686632 -0.0058536552074676396 -0.05409095955473234
0.001907148592685924 -0.0057422900625027674 -0.05723993766233909
0.0019331572346880975 -0.005639931428514522 -0.06031293506493656
0.001950520095185487 -0.005598230499353389 -0.06330995176252477
0.0019713775524772435 -0.005628625773868036 -0.06623098775510368
0.002001940618837369 -0.005695635475441967 -0.06907604304267333
0.002043991253299031 -0.005748276852181094 -0.0718451176252337
0.0020965919872574226 -0.005752980242231348 -0.07453821150278479
0.0021572716174181952 -0.005708739077371965 -0.0771553246753266
0.002222889306474622 -0.005635789439923162 -0.07969645714285914
0.0022902569992298834 -0.005557822784485871 -0.08216160890538239
0.002356563014275093 -0.005492600893951418 -0.08455077996289637
0.002419633788100913 -0.005450520682324397 -0.08686397031540107
0.002478071980853796 -0.005435091110473359 -0.08910117996289649
0.0025312982484522197 -0.005443743631220488 -0.09126240890538263
0.0025795181169276094 -0.005468853975088818 -0.0933476571428595
0.0026236187549793168 -0.005499023987293151 -0.0953569246753271
0.0026648965999394886 -0.0055216911595470045 -0.0972902115027854
0.0027046674981682033 -0.005526647328618514 -0.09914751762523442
0.002743991326431586 -0.0055082708078176635 -0.10092884304267417
0.002783529152140047 -0.005466361815351511 -0.10263418775510465
0.002823499260409836 -0.005405966741779646 -0.10426355176252584
0.002863703177552746 -0.005336519218708476 -0.10581693506493776
0.002903597741568914 -0.005270558368529316 -0.10729433766234041
0.0029423937002826268 -0.00522139129039435 -0.10869575955473376
0.002979165281793964 -0.0051974780213704785 -0.11002120074211785
0.003012958704183041 -0.005197780477294922 -0.11127066122449267
0.003042890695507488 -0.005211308899185239 -0.11244414100185818
0.003068230804061369 -0.005219512035554842 -0.11354164007421443
0.0030884636150496107 -0.0051994734557965225 -0.11456315844156138
0.003103328975264933 -0.00512290517771688 -0.11550869610389908
0.003112839983687626 -0.004954860582800681 -0.1163782530612275
0.0031172798545879925 -0.004659682467191942 -0.11717182931354662
0.003117179821986632 -0.004210466767985071 -0.11788942486085646
0.0031132810514472743 -0.0035977863055751762 -0.11853103970315705
0.0031064840783597263 -0.002835197573453348 -0.11909667384044835
0.003097789622359095 -0.0019604651371973067 -0.11958632727273036
0.0030882347566021204 -0.001032495454409423 -0.12000000000000309

CELLS 1 52
51 0 1 2 3 4 5 6 7 8 9 10 11 12 13 14 15 16 17 18 19 20 21 22 23 24 25 26 27 28 29 30 31 32 33 34 35 36 37 38 39 40 41 42 43 44 45 46 47 48 49 50

CELL_TYPES 1
7

POINT_DATA 51

VECTORS centroid-point-cyl-mean float
0.007590544068433788 2.534136927128e-20 -0.0029719591347978063
0.01123864174589082 -7.351781854525e-20 -0.0026088687952689677
0.015179386702288378 1.336687609914e-20 -0.0023370523259359783
0.01913992422871064 -1.6931376392239e-19 -0.0019680906196482004
0.02307389004349858 6.534917204021999e-20 -0.0014949451116649524
0.026917768882910764 3.2674586020109995e-20 -0.0010419019850043483
0.030597949287699776 -2.673375219827e-20 -0.0007715190259684618
0.03417997787547272 -1.2475751025861e-19 -0.0007508308841734576
0.037728645696177794 4.010062829741e-20 -0.0009129722932301809
0.04119300896367176 -4.7526670574709996e-20 -0.0011547972294834819
0.04458954996411758 8.91125073276e-21 -0.0014014894344952617
0.04793299767217563 -1.2772792716953e-19 -0.0016095859173883291
0.05120910916292571 1.4852084554595998e-19 -0.0017607303984668579
0.054406775174049814 -1.3663917790228e-19 -0.0018556132266866322
0.057527248836967436 2.3763335287353997e-19 -0.001907148592685925
0.060576059319384576 1.5520428359553e-19 -0.0019331572346880956
0.06355698369885948 5.2270055079331e-19 -0.0019505200951854848
0.06646973120991949 -4.752667057470699e-19 -0.0019713775524772435
0.06931046086921058 3.6833169695398e-19 -0.0020019406188373687
0.07207470855544955 3.8912461533041e-19 -0.002043991253299032
0.07475989403217057 -8.614209041665999e-20 -0.002096591987257423
0.07736623183022787 1.4258001172412e-19 -0.002157271617418191
0.07989547799302985 1.6040251318964e-19 -0.0022228893064746265
0.08234937384112137 2.7327835580456996e-19 -0.0022902569992298834
0.08472899773344623 3.6239086313213996e-19 -0.0023565630142750897
0.08703480634012635 4.6932587192523e-19 -0.0024196337881009144
0.08926679386064905 -4.7526670574709996e-20 -0.0024780719808537945
0.09142462263490997 1.1881667643676999e-19 -0.002531298248452219
0.09350771870739713 -3.564500293103e-20 -0.0025795181169276094
0.0955153513753093 -4.6932587192523e-19 -0.002623618754979321
0.09744677689650955 3.4456836166663e-19 -0.0026648965999394873
0.09930143041236145 3.5050919548845997e-19 -0.002704667498168202
0.10107904038535874 4.336808689942e-19 -0.0027439913264315843
0.10277965561163539 2.9110085727008e-19 -0.0027835291521400496
0.10440360483503495 -6.7131422186774e-19 -0.002823499260409839
0.10595141426101336 6.237875512930299e-19 -0.002863703177552746
0.10742371097628481 1.0693500879309e-19 -0.0029035977415689173
0.10882109663198544 -5.4655671160913e-19 -0.0029423937002826255
0.11014389856238078 2.6139668816089e-19 -0.002979165281793961
0.11139199689037771 -1.188166764368e-20 -0.0030129587041830353
0.11256483725430648 -7.129000586206e-20 -0.003042890695507485
0.11366154730880501 -1.1881667643676999e-19 -0.003068230804061372
0.11468108735237846 3.3268669402294996e-19 -0.003088463615049609
0.11562224281288966 7.723083968389899e-19 -0.003103328975264935
0.11648368310187522 2.9704169109191997e-19 -0.00311283998368763
0.11726444570021202 -2.376333528735e-20 -0.00311727985458799
0.11796459012952909 3.2080502637926998e-19 -0.0031171798219866357
0.11858562914372037 -4.158583675287e-20 -0.0031132810514472786
0.11913041620484102 -3.9209503224132996e-19 -0.0031064840783597276
0.11960239585449256 4.1585836752869e-19 -0.0030977896223590975
0.12000444177972791 -9.208292423848999e-20 -0.003088234756602117

VECTORS centroid-point-mean float
0.0029719591347978063 -5.9204013938541095e-5 -8.547945205479789e-5
0.0026088687952689677 -5.912764117414357e-5 -0.00014214694894147388
0.0023370523259359783 -6.421302065607923e-5 -0.00019777361425268012
0.0019680906196482004 -7.112450106651667e-5 -0.00025235944798841873
0.0014949451116649524 -7.955794833130916e-5 -0.00030590445014868814
0.0010419019850043483 -8.665974436819421e-5 -0.0003584086207334843
0.0007715190259684618 -8.770228581310205e-5 -0.00040987195974281454
0.0007508308841734576 -8.577830960606025e-5 -0.000460294467176673
0.0009129722932301809 -8.569869756364283e-5 -0.0005096761430350601
0.0011547972294834819 -8.38913365479175e-5 -0.0005580169873179833
0.0014014894344952617 -8.177538450819659e-5 -0.0006053170000254313
0.0016095859173883291 -8.12008952628176e-5 -0.0006515761811574135
0.0017607303984668579 -8.106861555803108e-5 -0.0006967945307139228
0.0018556132266866322 -8.018705763653115e-5 -0.0007409720486949652
0.001907148592685925 -7.866150770550784e-5 -0.0007841087351005391
0.0019331572346880956 -7.725933463717412e-5 -0.0008262045899306402
0.0019505200951854848 -7.668808903222263e-5 -0.0008672596131852722
0.0019713775524772435 -7.7104462655708e-5 -0.0009072738048644366
0.0020019406188373687 -7.802240377317778e-5 -0.0009462471649681293
0.002043991253299032 -7.874351852301905e-5 -0.0009841796934963554
0.002096591987257423 -7.880794852371784e-5 -0.0010210713904491063
0.002157271617418191 -7.820190516946628e-5 -0.0010569222558263936
0.0022228893064746265 -7.720259506743104e-5 -0.0010917322896282094
0.0022902569992298834 -7.613455869157605e-5 -0.0011255014918545511
0.0023565630142750897 -7.52411081363071e-5 -0.0011582298625054358
0.0024196337881009144 -7.466466688113666e-5 -0.0011899174015808397
0.0024780719808537945 -7.445330288318339e-5 -0.0012205641090807804
0.002531298248452219 -7.457183056465579e-5 -0.001250169985005244
0.0025795181169276094 -7.491580787790548e-5 -0.0012787350293542463
0.002623618754979321 -7.532909571632373e-5 -0.0013062592421277748
0.0026648965999394873 -7.563960492528876e-5 -0.001332742623325827
0.002704667498168202 -7.570749765229013e-5 -0.0013581851729484197
0.0027439913264315843 -7.54557644906291e-5 -0.0013825868909955357
0.0027835291521400496 -7.488166870342621e-5 -0.0014059477774671933
0.002823499260409839 -7.405433892845715e-5 -0.0014282678323633705
0.002863703177552746 -7.310300299598544e-5 -0.001449547055684085
0.0029035977415689173 -7.219942970586192e-5 -0.001469785447429326
0.0029423937002826255 -7.152590808755863e-5 -0.0014889830075991025
0.002979165281793961 -7.119832905986402e-5 -0.0015071397361933923
0.0030129587041830353 -7.120247229168371e-5 -0.0015242556332122404
0.003042890695507485 -7.138779313951335e-5 -0.0015403306986556031
0.003068230804061372 -7.150016487058724e-5 -0.0015553649325234897
0.003088463615049609 -7.122566377802993e-5 -0.001569358334815908
0.003103328975264935 -7.017678325638201e-5 -0.0015823109055328676
0.00311283998368763 -6.78748025041066e-5 -0.001594222644674355
0.00311727985458799 -6.383126667383791e-5 -0.001605093552240372
0.0031171798219866357 -5.767762695868215e-5 -0.0016149236282309138
0.0031132810514472786 -4.9284743911967804e-5 -0.001623712872645988
0.0031064840783597276 -3.883832292400146e-5 -0.0016314612854855994
0.0030977896223590975 -2.6855686810921937e-5 -0.0016381688667497349
0.003088234756602117 -1.4143773348044726e-5 -0.0016438356164384126

VECTORS centroid-point-cyl-variance float
0.0 0.0 0.0
0.0 0.0 0.0
0.0 0.0 0.0
0.0 0.0 0.0
0.0 0.0 0.0
0.0 0.0 0.0
0.0 0.0 0.0
0.0 0.0 0.0
0.0 0.0 0.0
0.0 0.0 0.0
0.0 0.0 0.0
0.0 0.0 0.0
0.0 0.0 0.0
0.0 0.0 0.0
9.999999999999999e-33 0.0 0.0
0.0 0.0 0.0
9.999999999999999e-33 0.0 0.0
0.0 0.0 0.0
0.0 0.0 0.0
9.999999999999999e-33 0.0 0.0
0.0 0.0 0.0
0.0 0.0 0.0
9.999999999999999e-33 0.0 0.0
0.0 0.0 0.0
9.999999999999999e-33 0.0 0.0
1.9999999999999998e-32 0.0 0.0
0.0 0.0 0.0
9.999999999999999e-33 0.0 0.0
9.999999999999999e-33 0.0 0.0
1.9999999999999998e-32 0.0 0.0
9.999999999999999e-33 0.0 0.0
1.9999999999999998e-32 0.0 0.0
1.9999999999999998e-32 0.0 0.0
1.9999999999999998e-32 0.0 0.0
0.0 0.0 0.0
1.9999999999999998e-32 0.0 0.0
9.999999999999999e-33 0.0 0.0
9.999999999999999e-33 0.0 0.0
9.999999999999999e-33 0.0 0.0
3.0e-32 0.0 0.0
9.999999999999999e-33 0.0 0.0
1.9999999999999998e-32 0.0 0.0
3.0e-32 0.0 0.0
3.0e-32 0.0 0.0
0.0 0.0 0.0
9.999999999999999e-33 0.0 0.0
1.9999999999999998e-32 0.0 0.0
9.999999999999999e-33 0.0 0.0
0.0 0.0 0.0
9.999999999999999e-33 0.0 0.0
0.0 0.0 0.0

VECTORS centroid-point-cart-variance float
0.0 2.866591532896513e-5 2.893963207388016e-5
0.0 6.254013485258595e-5 6.374323160684961e-5
0.0 0.00011392559221452624 0.00011644495072856702
0.0 0.00018102342027943744 0.00018524453521570557
0.0 0.00026301131701263897 0.00026929317772706065
0.0 0.0003578610716791495 0.00036656924330394185
0.0 0.00046225848698108773 0.00047380032691724043
0.0 0.0005766633585143222 0.0005913883001385715
0.0 0.0007025044778705448 0.0007206791141596239
0.0 0.0008373163561189729 0.0008592292106476827
0.0 0.0009809774626069556 0.001006877407511554
0.0 0.0011335240747272078 0.001163617046008341
0.0 0.0012936981653472314 0.001328182601174743
0.0 0.0014602369115907677 0.0014993048037076722
0.0 0.00163247067278057 0.0016762926718285544
0.0 0.0018100259691113743 0.0018587444105250125
0.0 0.0019925007840468577 0.002046231372550581
0.0 0.0021792788144139505 0.0022381172618498365
0.0 0.002369504594092925 0.002433533920616742
0.0 0.0025622476729853694 0.0026315411301568135
0.0 0.002756686939812963 0.0028313060184112695
0.0 0.002952210425499866 0.0030322002019158717
0.0 0.003148351692595772 0.003233737871506053
0.0 0.0033446789540357543 0.0034354678679098085
0.0 0.0035407378827961512 0.0036369180164794457
0.0 0.003736046188250367 0.003837589848177884
0.0 0.0039301001788580895 0.004036964987262832
0.0 0.0041223814637874005 0.004234511674198986
0.0 0.004312362508811067 0.00442969017339705
0.0 0.004499512185874878 0.004621958174793635
0.0 0.004683308865827073 0.004810783537441194
0.0 0.004863260169478557 0.004995663513873318
0.0 0.00503891687677545 0.005176138288366013
0.0 0.005209878707622908 0.005351796603606218
0.0 0.005375792896341432 0.005522274373162615
0.0 0.005536347492363171 0.005687248160830032
0.0 0.005691262064810925 0.005846426133086334
0.0 0.005840274083027646 0.005999534802807802
0.0 0.005983110490202091 0.006146291360931446
0.0 0.006119465997139783 0.006286382549058727
0.0 0.006249001627613513 0.0064194632435967385
0.0 0.00637135581135152 0.006545167252933323
0.0 0.0064861606692592725 0.006663123168386309
0.0 0.006593041011499092 0.00677295338900101
0.0 0.00669162133940305 0.006874280936745428
0.0 0.006781583881107768 0.006966785944528134
0.0 0.006862749151507869 0.007050284067886285
0.0 0.0069351317612212976 0.007124780805711892
0.0 0.0069989307750130516 0.007190462115784222
0.0 0.007054440851544747 0.007247607924126076
0.0 0.007101909988090269 0.007296453663193642

CELL_DATA 1

VECTORS centroid-cell-cart-variance float
9.999999999999999e-33 7.966966237271902 8.183293545773148

VECTORS centroid-cell-cyl-mean float
4.019115697259696 2.661493552183594e-17 -0.12068261124473953

VECTORS centroid-cell-mean float
0.12068261124473953 -0.0036509562328867636 -0.05493519302615367

VECTORS centroid-cell-cyl-variance float
5.06e-30 1.9999999999999998e-32 9.999999999999999e-33