# vtk DataFile Version 4.0
 
ASCII
DATASET UNSTRUCTURED_GRID
POINTS 51 float
0.002971959134797803 0.004321893017513574 0.006240000000000178
0.0026088687952689656 0.0043163178057125644 0.010376727272727551
0.002337052325935978 0.0046875505078938845 0.014437473840445648
0.001968090619648202 0.005192088577855927 0.01842223970315447
0.0014949451116649517 0.005807730228185673 0.02233102486085401
0.001041901985004348 0.0063261613388784985 0.026163829313544273
0.0007715190259684618 0.006402266864356585 0.029920653061225256
0.0007508308841734576 0.006261816601242923 0.033601496103896955
0.0009129722932301809 0.006256004922145843 0.03720635844155938
0.0011547972294834814 0.006124067567998099 0.04073524007421254
0.001401489434495261 0.005969603069098927 0.044188141001856404
0.0016095859173883291 0.0059276653541857505 0.047565061224490994
0.001760730398466856 0.005918008935736535 0.05086600074211631
0.001855613226686632 0.005853655207467262 0.05409095955473234
0.001907148592685924 0.005742290062502369 0.05723993766233909
0.0019331572346880975 0.005639931428514107 0.06031293506493656
0.001950520095185487 0.005598230499352955 0.06330995176252477
0.0019713775524772435 0.005628625773867583 0.06623098775510368
0.002001940618837369 0.005695635475441495 0.06907604304267333
0.002043991253299031 0.005748276852180605 0.0718451176252337
0.0020965919872574226 0.005752980242230842 0.07453821150278479
0.0021572716174181952 0.005708739077371442 0.0771553246753266
0.002222889306474622 0.005635789439922623 0.07969645714285914
0.0022902569992298834 0.005557822784485317 0.08216160890538239
0.002356563014275093 0.0054926008939508485 0.08455077996289637
0.002419633788100913 0.005450520682323814 0.08686397031540107
0.002478071980853796 0.0054350911104727615 0.08910117996289649
0.0025312982484522197 0.005443743631219877 0.09126240890538263
0.0025795181169276094 0.0054688539750881926 0.0933476571428595
0.0026236187549793168 0.005499023987292513 0.0953569246753271
0.0026648965999394886 0.005521691159546354 0.0972902115027854
0.0027046674981682033 0.005526647328617852 0.09914751762523442
0.002743991326431586 0.00550827080781699 0.10092884304267417
0.002783529152140047 0.005466361815350825 0.10263418775510465
0.002823499260409836 0.005405966741778952 0.10426355176252584
0.002863703177552746 0.005336519218707773 0.10581693506493776
0.002903597741568914 0.005270558368528603 0.10729433766234041
0.0029423937002826268 0.005221391290393628 0.10869575955473376
0.002979165281793964 0.005197478021369748 0.11002120074211785
0.003012958704183041 0.005197780477294185 0.11127066122449267
0.003042890695507488 0.005211308899184495 0.11244414100185818
0.003068230804061369 0.00521951203555409 0.11354164007421443
0.0030884636150496107 0.005199473455795764 0.11456315844156138
0.003103328975264933 0.005122905177716115 0.11550869610389908
0.003112839983687626 0.004954860582799913 0.1163782530612275
0.0031172798545879925 0.00465968246719117 0.11717182931354662
0.003117179821986632 0.004210466767984296 0.11788942486085646
0.0031132810514472743 0.003597786305574402 0.11853103970315705
0.0031064840783597263 0.0028351975734525747 0.11909667384044835
0.003097789622359095 0.001960465137196535 0.11958632727273036
0.0030882347566021204 0.0010324954544086544 0.12000000000000309

CELLS 1 52
51 0 1 2 3 4 5 6 7 8 9 10 11 12 13 14 15 16 17 18 19 20 21 22 23 24 25 26 27 28 29 30 31 32 33 34 35 36 37 38 39 40 41 42 43 44 45 46 47 48 49 50

CELL_TYPES 1
7

POINT_DATA 51

VECTORS centroid-point-cyl-mean float
0.007590544068433738 7.61169333423e-21 -0.0029719591347978063
0.01123864174589077 6.757698472341e-20 -0.0026088687952689677
0.01517938670228836 2.970416910919e-20 -0.0023370523259359783
0.019139924228710605 3.1931981792379996e-20 -0.0019680906196482004
0.02307389004349856 5.3467504396549995e-20 -0.0014949451116649524
0.02691776888291075 1.48520845546e-21 -0.0010419019850043483
0.03059794928769976 4.158583675287e-20 -0.0007715190259684618
0.03417997787547268 6.98047974066e-20 -0.0007508308841734576
0.037728645696177725 -1.633729301006e-20 -0.0009129722932301809
0.04119300896367171 -4.455625366379e-20 -0.0011547972294834819
0.04458954996411757 1.2178709334768998e-19 -0.0014014894344952617
0.04793299767217551 1.1584625952585e-19 -0.0016095859173883291
0.05120910916292554 1.6634334701147e-19 -0.0017607303984668579
0.05440677517404967 3.564500293103e-20 -0.0018556132266866322
0.05752724883696738 8.91125073276e-21 -0.001907148592685925
0.06057605931938457 2.2575168522986e-19 -0.0019331572346880956
0.06355698369885945 -4.7712321631639997e-20 -0.0019505200951854848
0.06646973120991947 -4.1548706541482e-19 -0.0019713775524772435
0.06931046086921047 -4.633850381033899e-19 -0.0020019406188373687
0.07207470855544952 -3.787281561422e-19 -0.002043991253299032
0.07475989403217052 -2.8813044035916e-19 -0.002096591987257423
0.0773662318302278 -4.7526670574709996e-20 -0.002157271617418191
0.0798954779930298 -1.8119543156606998e-19 -0.0022228893064746265
0.08234937384112134 -1.782250146552e-20 -0.0022902569992298834
0.08472899773344623 -4.6635545501431e-19 -0.0023565630142750897
0.08703480634012634 1.7228418083331e-19 -0.0024196337881009144
0.08926679386064888 6.950775571550899e-19 -0.0024780719808537945
0.09142462263490987 -1.4258001172412e-19 -0.002531298248452219
0.09350771870739713 -2.9704169109191997e-19 -0.0025795181169276094
0.09551535137530927 -9.505334114940999e-20 -0.002623618754979321
0.09744677689650953 -6.534917204021999e-20 -0.0026648965999394873
0.09930143041236145 -4.7526670574709996e-20 -0.002704667498168202
0.10107904038535871 8.911250732758e-20 -0.0027439913264315843
0.10277965561163535 -1.9604751612066999e-19 -0.0027835291521400496
0.10440360483503495 -3.6239086313213996e-19 -0.002823499260409839
0.10595141426101333 9.505334114940999e-20 -0.002863703177552746
0.10742371097628478 -2.1387001758618e-19 -0.0029035977415689173
0.10882109663198525 -2.4951502051721e-19 -0.0029423937002826255
0.11014389856238076 -4.7526670574709996e-20 -0.002979165281793961
0.11139199689037767 -1.188166764368e-20 -0.0030129587041830353
0.11256483725430647 7.129000586206e-20 -0.003042890695507485
0.11366154730880501 -5.346750439654499e-19 -0.003068230804061372
0.1146810873523784 -8.317167350574e-20 -0.003088463615049609
0.1156222428128896 9.1488840856311e-19 -0.003103328975264935
0.1164836831018752 -5.109117086781e-19 -0.00311283998368763
0.11726444570021193 2.1387001758618e-19 -0.00311727985458799
0.11796459012952909 -8.0795339977002e-19 -0.0031171798219866357
0.11858562914372037 -3.5645002931029997e-19 -0.0031132810514472786
0.11913041620484102 -2.4357418669537e-19 -0.0031064840783597276
0.11960239585449256 -6.1784671747119e-19 -0.0030977896223590975
0.12000444177972791 4.5744420428156e-19 -0.003088234756602117

VECTORS centroid-point-mean float
0.0029719591347978063 5.920401393854006e-5 8.547945205479652e-5
0.0026088687952689677 5.9127641174141536e-5 0.0001421469489414745
0.0023370523259359783 6.421302065608055e-5 0.0001977736142526811
0.0019680906196482004 7.112450106651551e-5 0.0002523594479884179
0.0014949451116649524 7.955794833130412e-5 0.0003059044501486855
0.0010419019850043483 8.665974436819332e-5 0.00035840862073348333
0.0007715190259684618 8.770228581309621e-5 0.00040987195974281015
0.0007508308841734576 8.577830960605769e-5 0.00046029446717667173
0.0009129722932301809 8.569869756362872e-5 0.0005096761430350608
0.0011547972294834819 8.389133654790807e-5 0.0005580169873179818
0.0014014894344952617 8.177538450819664e-5 0.0006053170000254298
0.0016095859173883291 8.120089526280166e-5 0.0006515761811574134
0.0017607303984668579 8.106861555803081e-5 0.0006967945307139252
0.0018556132266866322 8.01870576365296e-5 0.0007409720486949653
0.001907148592685925 7.866150770550024e-5 0.0007841087351005402
0.0019331572346880956 7.725933463716408e-5 0.0008262045899306397
0.0019505200951854848 7.668808903221816e-5 0.0008672596131852727
0.0019713775524772435 7.710446265570228e-5 0.0009072738048644365
0.0020019406188373687 7.802240377316785e-5 0.0009462471649681302
0.002043991253299032 7.874351852302149e-5 0.0009841796934963512
0.002096591987257423 7.880794852369888e-5 0.001021071390449109
0.002157271617418191 7.820190516945647e-5 0.0010569222558263966
0.0022228893064746265 7.720259506741956e-5 0.0010917322896282127
0.0022902569992298834 7.613455869156854e-5 0.0011255014918545559
0.0023565630142750897 7.524110813630547e-5 0.0011582298625054262
0.0024196337881009144 7.466466688112709e-5 0.0011899174015808352
0.0024780719808537945 7.445330288316221e-5 0.001220564109080776
0.002531298248452219 7.457183056464515e-5 0.0012501699850052488
0.0025795181169276094 7.491580787789289e-5 0.0012787350293542428
0.002623618754979321 7.532909571631883e-5 0.0013062592421277687
0.0026648965999394873 7.56396049252732e-5 0.0013327426233258365
0.002704667498168202 7.570749765229006e-5 0.0013581851729484243
0.0027439913264315843 7.545576449062216e-5 0.001382586890995542
0.0027835291521400496 7.488166870340946e-5 0.001405947777467189
0.002823499260409839 7.405433892847065e-5 0.0014282678323633761
0.002863703177552746 7.310300299598391e-5 0.0014495470556840897
0.0029035977415689173 7.219942970585088e-5 0.0014697854474293277
0.0029423937002826255 7.152590808756213e-5 0.001488983007599105
0.002979165281793961 7.1198329059844e-5 0.0015071397361933996
0.0030129587041830353 7.120247229167476e-5 0.0015242556332122296
0.003042890695507485 7.138779313948372e-5 0.0015403306986555988
0.003068230804061372 7.150016487058592e-5 0.0015553649325234934
0.003088463615049609 7.122566377799791e-5 0.001569358334815916
0.003103328975264935 7.017678325635783e-5 0.0015823109055328713
0.00311283998368763 6.78748025040883e-5 0.001594222644674358
0.00311727985458799 6.383126667383242e-5 0.0016050935522403755
0.0031171798219866357 5.7677626958667495e-5 0.0016149236282309114
0.0031132810514472786 4.928474391195004e-5 0.0016237128726459985
0.0031064840783597276 3.8838322923970065e-5 0.0016314612854855994
0.0030977896223590975 2.685568681088872e-5 0.0016381688667497392
0.003088234756602117 1.4143773348045153e-5 0.001643835616438406

VECTORS centroid-point-cyl-variance float
0.0 0.0 0.0
0.0 0.0 0.0
0.0 0.0 0.0
0.0 0.0 0.0
0.0 0.0 0.0
0.0 0.0 0.0
0.0 0.0 0.0
0.0 0.0 0.0
0.0 0.0 0.0
0.0 0.0 0.0
0.0 0.0 0.0
0.0 0.0 0.0
0.0 0.0 0.0
9.999999999999999e-33 0.0 0.0
9.999999999999999e-33 0.0 0.0
0.0 0.0 0.0
0.0 0.0 0.0
0.0 0.0 0.0
0.0 0.0 0.0
9.999999999999999e-33 0.0 0.0
0.0 0.0 0.0
9.999999999999999e-33 0.0 0.0
9.999999999999999e-33 0.0 0.0
9.999999999999999e-33 0.0 0.0
0.0 0.0 0.0
9.999999999999999e-33 0.0 0.0
9.999999999999999e-33 0.0 0.0
3.0e-32 0.0 0.0
1.9999999999999998e-32 0.0 0.0
9.999999999999999e-33 0.0 0.0
9.999999999999999e-33 0.0 0.0
9.999999999999999e-33 0.0 0.0
1.9999999999999998e-32 0.0 0.0
1.9999999999999998e-32 0.0 0.0
9.999999999999999e-33 0.0 0.0
1.9999999999999998e-32 0.0 0.0
0.0 0.0 0.0
9.999999999999999e-33 0.0 0.0
9.999999999999999e-33 0.0 0.0
3.0e-32 0.0 0.0
1.9999999999999998e-32 0.0 0.0
9.999999999999999e-33 0.0 0.0
1.9999999999999998e-32 0.0 0.0
1.9999999999999998e-32 0.0 0.0
0.0 0.0 0.0
0.0 0.0 0.0
9.999999999999999e-33 0.0 0.0
9.999999999999999e-33 0.0 0.0
9.999999999999999e-33 0.0 0.0
9.999999999999999e-33 0.0 0.0
0.0 0.0 0.0

VECTORS centroid-point-cart-variance float
0.0 2.8665915328964846e-5 2.893963207387987e-5
0.0 6.254013485258557e-5 6.374323160684922e-5
0.0 0.00011392559221452559 0.00011644495072856644
0.0 0.00018102342027943662 0.00018524453521570478
0.0 0.0002630113170126379 0.00026929317772705967
0.0 0.00035786107167914825 0.0003665692433039404
0.0 0.00046225848698108643 0.0004738003269172391
0.0 0.0005766633585143205 0.00059138830013857
0.0 0.0007025044778705433 0.0007206791141596224
0.0 0.0008373163561189711 0.0008592292106476809
0.0 0.0009809774626069535 0.0010068774075115518
0.0 0.0011335240747272057 0.0011636170460083393
0.0 0.0012936981653472286 0.0013281826011747417
0.0 0.0014602369115907646 0.0014993048037076709
0.0 0.0016324706727805674 0.0016762926718285524
0.0 0.0018100259691113715 0.0018587444105250108
0.0 0.0019925007840468543 0.0020462313725505784
0.0 0.0021792788144139466 0.0022381172618498343
0.0 0.0023695045940929213 0.0024335339206167394
0.0 0.0025622476729853655 0.0026315411301568122
0.0 0.002756686939812961 0.002831306018411268
0.0 0.0029522104254998604 0.00303220020191587
0.0 0.003148351692595768 0.0032337378715060518
0.0 0.0033446789540357486 0.0034354678679098063
0.0 0.0035407378827961473 0.003636918016479442
0.0 0.0037360461882503648 0.0038375898481778823
0.0 0.0039301001788580835 0.004036964987262831
0.0 0.004122381463787397 0.004234511674198984
0.0 0.004312362508811063 0.0044296901733970485
0.0 0.0044995121858748734 0.004621958174793634
0.0 0.004683308865827068 0.004810783537441189
0.0 0.0048632601694785504 0.004995663513873313
0.0 0.005038916876775444 0.005176138288366009
0.0 0.0052098787076229015 0.005351796603606218
0.0 0.0053757928963414255 0.005522274373162611
0.0 0.005536347492363165 0.005687248160830028
0.0 0.005691262064810919 0.005846426133086333
0.0 0.005840274083027641 0.005999534802807798
0.0 0.00598311049020209 0.0061462913609314435
0.0 0.006119465997139775 0.0062863825490587265
0.0 0.006249001627613508 0.006419463243596734
0.0 0.006371355811351517 0.006545167252933321
0.0 0.006486160669259268 0.006663123168386307
0.0 0.006593041011499086 0.0067729533890010084
0.0 0.0066916213394030465 0.006874280936745427
0.0 0.006781583881107763 0.00696678594452813
0.0 0.006862749151507864 0.0070502840678862795
0.0 0.006935131761221293 0.007124780805711887
0.0 0.006998930775013047 0.007190462115784222
0.0 0.007054440851544747 0.007247607924126077
0.0 0.007101909988090267 0.007296453663193643

CELL_DATA 1

VECTORS centroid-cell-cart-variance float
9.999999999999999e-33 7.9669662372718975 8.183293545773145

VECTORS centroid-cell-cyl-mean float
4.019115697259695 -3.897186987125978e-17 -0.12068261124473953

VECTORS centroid-cell-mean float
0.12068261124473953 0.0036509562328863516 0.05493519302615316

VECTORS centroid-cell-cyl-variance float
3.7199999999999995e-30 9.999999999999999e-33 9.999999999999999e-33