# vtk DataFile Version 4.0
 
ASCII
DATASET UNSTRUCTURED_GRID
POINTS 152 float
0.0018916144324157278 0.00797072284290618 0.0062400000000001985
0.0010688609733395774 0.008980725727208394 0.010376727272727579
0.00045780959861706216 0.009990069990948971 0.01443747384044568
-0.00013255382275044122 0.010861711113996204 0.0184222397031545
-0.0007201482309470062 0.011653188525701923 0.022331024860854046
-0.0011946371146526612 0.012214919606059565 0.026163829313544305
-0.0014108622120167862 0.012243082475887448 0.029920653061225287
-0.0013224843579428829 0.011990961980962224 0.03360149610389699
-0.0010167791708201568 0.011828261772846183 0.037206358441559416
-0.0006138083932142036 0.01150770274809116 0.040735240074212566
-0.00020084691410191335 0.011143465915482237 0.04418814100185643
0.0001698744379422134 0.010878997657339223 0.04756506122449102
0.0004739400232210948 0.010640632802006937 0.05086600074211633
0.0007082255455298663 0.01034656625343142 0.05409095955473236
0.0008836440760600275 0.010008554363766794 0.05723993766233912
0.001017516815515788 0.00968583801505257 0.06031293506493659
0.0011275777072549662 0.009432676154918813 0.06330995176252478
0.0012277625198140337 0.009262627687512405 0.06623098775510369
0.00132638558954348 0.009141867324371169 0.06907604304267334
0.0014271324949937316 0.009020570687082027 0.07184511762523371
0.0015306083418583354 0.008865847309345259 0.0745382115027848
0.0016355657532635378 0.008676950628718321 0.07715532467532663
0.0017398364473795213 0.00847401942246691 0.07969645714285915
0.0018410131526058282 0.008280348615762417 0.0821616089053824
0.001936923789896676 0.008113058942476303 0.08455077996289638
0.0020259353317291845 0.007981713205621747 0.08686397031540109
0.0021071205190511294 0.007888840422160525 0.0891011799628965
0.002180316672546981 0.007830789377547945 0.09126240890538265
0.0022461021518325993 0.007798789735859425 0.09334765714285952
0.0023056987632523672 0.007780269580982546 0.09535692467532711
0.0023607022647827588 0.007761496864030309 0.09729021150278541
0.0024126938092907785 0.007731126125784561 0.09914751762523444
0.0024629658139780817 0.0076824547696543385 0.10092884304267419
0.0025123806343549317 0.007614278665178672 0.10263418775510465
0.0025613283706516186 0.0075307325858566055 0.10426355176252584
0.0026097549007438213 0.007440443484172304 0.10581693506493776
0.0026572361369983943 0.0073552570963992155 0.10729433766234044
0.002703078927872171 0.007287905109032815 0.10869575955473378
0.0027464329900004744 0.007246391357822771 0.11002120074211785
0.0027864017842759935 0.00722933884274552 0.11127066122449267
0.0028221433614242725 0.007225531401885686 0.1124441410018582
0.0028529549202113143 0.007216296621747196 0.11354164007421444
0.002878337166053322 0.007178692748478562 0.11456315844156138
0.0028980365508205295 0.00708449116707654 0.1155086961038991
0.0029120651374179955 0.006898876813743594 0.1163782530612275
0.002920699186668212 0.006586382762021655 0.11717182931354662
0.0029244586304951574 0.006120339909871117 0.11788942486085649
0.002924070395798875 0.005491586485335126 0.11853103970315705
0.0029204190990956736 0.00471396076322667 0.11909667384044835
0.0029144889643634465 0.0038255118951103823 0.11958632727273037
0.002907300946956263 0.002885420980087712 0.12000000000000309
0.006212993241944028 -0.006624596458664243 0.006240000000000116
0.0072288922610571306 -0.00967690595877493 0.010376727272727473
0.007974780507892725 -0.011220007941271376 0.014437473840445561
0.008270023946844132 -0.01181677903056491 0.018422239703154375
0.008140225139500825 -0.011728644664363075 0.022331024860853914
0.007751519283975376 -0.011340113462664702 0.026163829313544176
0.007318662739924205 -0.011120179970236009 0.029920653061225155
0.0069707766105224795 -0.01092561953791498 0.033601496103896865
0.006702226685381192 -0.010460765629955179 0.03720635844155929
0.006460614097576536 -0.010026837972281087 0.04073524007421245
0.006208498480286784 -0.009551985470051002 0.044188141001856314
0.005928720355726676 -0.008926331555274662 0.04756506122449091
0.00562110152420414 -0.008249862663074673 0.050866000742116224
0.005297776270156929 -0.00762507793042521 0.05409095955473226
0.004977662142563614 -0.0070565028412909025 0.05723993766233903
0.004680078492205027 -0.0064977883311012835 0.0603129350649365
0.0044193472589770496 -0.005905106467344621 0.0633099517625247
0.0042022226504668725 -0.0052733799670668866 0.06623098775510361
0.004028605706719037 -0.004643060071347524 0.06907604304267327
0.003894567528214928 -0.004068604652523663 0.07184511762523364
0.003794542923454683 -0.0035856209591124087 0.07453821150278474
0.0037223892098821663 -0.0031958955766691988 0.07715532467532656
0.0036720478837599236 -0.0028789005077102373 0.07969645714285908
0.0036379885391020494 -0.0026097547093459823 0.08216160890538235
0.003615480687410345 -0.0023687732516255128 0.08455077996289632
0.003600729157216099 -0.002143056887569988 0.08686397031540102
0.0035909263662617956 -0.0019261568245905322 0.08910117996289645
0.003584242976167935 -0.00171739360776433 0.09126240890538259
0.00357976601221264 -0.0015209533072254998 0.09334765714285946
0.003577378730160166 -0.0013447127937775882 0.09535692467532705
0.0035774796054096774 -0.0011977259539055077 0.09729021150278536
0.003580588564800478 -0.001086789062882279 0.0991475176252344
0.0035870678637920984 -0.0010142810776950495 0.10092884304267415
0.0035969747054953923 -0.0009773887341327113 0.1026341877551046
0.0036100119296844893 -0.000968330790454004 0.10426355176252583
0.0036255480079795204 -0.0009752535776858203 0.10581693506493775
0.0036426825552804717 -0.0009835378150832325 0.10729433766234037
0.0036603380175139954 -0.0009781501655239373 0.10869575955473373
0.003677362157174432 -0.0009492619879893215 0.1100212007421178
0.0036926294639041822 -0.000896894619059819 0.11127066122449261
0.0037051326977571345 -0.000831358608919076 0.11244414100185814
0.003714058455611533 -0.0007708417230252289 0.11354164007421437
0.003718842962038476 -0.0007381844222526257 0.11456315844156137
0.003719206248598144 -0.000761852790365157 0.11550869610389905
0.003715164522496519 -0.0008771881100311331 0.11637825306122744
0.0037070218583473346 -0.0011204184173002805 0.11717182931354661
0.003695343396461056 -0.001519152657676166 0.11788942486085645
0.003680913018392471 -0.0020836142337077724 0.11853103970315704
0.0036646790161518838 -0.0028010919958697134 0.1190966738404483
0.003647691596346039 -0.003634675136545005 0.11958632727273033
0.0036310361855396924 -0.004526281122628519 0.12000000000000305
0.005410766489344848 -0.003994132335275367 0.008308363636363818
0.005892211109850776 -0.005464993247747694 0.012407100556586547
0.006132458642509649 -0.006032322476320459 0.0164298567718
0.006047255650667177 -0.00601517143063573 0.020376632282004176
0.005720055990603616 -0.005667270781165229 0.024247427087199076
0.005325630843128663 -0.005365359777094391 0.028042241187384704
0.005016871435172548 -0.005237919258450411 0.03176107458256105
0.004834968294868498 -0.005042491468725257 0.035403927272728106
0.004732241848104854 -0.004765855785721432 0.0389707992578859
0.00464908530328423 -0.004510662707927859 0.04246169053803441
0.004547585503985086 -0.004176560937894441 0.04587660111317364
0.004411660012619469 -0.0037511190244627307 0.0492155309833036
0.004242349868979272 -0.00332970284063266 0.05247848014842427
0.00405227310746894 -0.0029612027122437666 0.05566544860853567
0.003859297849485217 -0.0026210601422946476 0.05877643636363778
0.0036804214720396232 -0.0022612712781707924 0.061811443413730634
0.003527506244425096 -0.001855019432600412 0.06477046975881418
0.003405829147614405 -0.001418103137919958 0.06765351539888848
0.003315379723667389 -0.0009965695200200445 0.07046058033395348
0.003253134023982613 -0.0006345323548101168 0.07319166456400922
0.003214621311891553 -0.0003502189586601552 0.07584676808905567
0.0031948391851961662 -0.00013417727524413377 0.07842589090909284
0.0031888698585714084 3.6050298382583095e-5 0.08092903302412074
0.0031922930777549615 0.00018222795941553067 0.08335619443413936
0.003201436081938149 0.0003199102163139441 0.0857073751391487
0.0032135028026517493 0.0004578640614125896 0.08798257513914876
0.003226618152360912 0.0005986223128304863 0.09018179443413954
0.0032398057236901635 0.0007393172960547344 0.09230503302412105
0.003252904392775423 0.0008727576267290889 0.09435229090909328
0.003266372004343082 0.0009893062752454455 0.09632356808905622
0.0032809500730880004 0.0010798847424314383 0.0982188645640099
0.0032973286136308236 0.0011387963092133635 0.10003818033395429
0.0033159342695244357 0.0011652154999187167 0.10178151539888941
0.0033368336138182735 0.0011634815846593915 0.10344886975881525
0.0033597203855484335 0.0011425528707011794 0.10504024341373179
0.0033839603409402744 0.001114915800283045 0.10655563636363907
0.003408672097906746 0.0010947622829513158 0.10799504860853706
0.0034328265552422406 0.0010940075007894769 0.1093584801484258
0.0034553512046890385 0.0011171575474276095 0.11064593098330525
0.003475228953835527 0.001158763820086815 0.1118574011131754
0.0034915839677176984 0.0012044033784749956 0.11299289053803628
0.0035037495424018335 0.0012334888667990247 0.11405239925788788
0.0035113151685979642 0.001220384034712719 0.11503592727273024
0.003514151750190315 0.0011332806599539088 0.11594347458256327
0.003512415433327221 0.0009365549992213762 0.11677504118738703
0.0035065316976985676 0.0005985011808704287 0.11753062708720154
0.0034971622838568268 0.00010045321513180337 0.11821023228200674
0.003485158199815951 -0.0005560714300213322 0.11881385677180269
0.0034715024876191118 -0.0013459785923633871 0.11934150055658933
0.003457246657122113 -0.00222149198779031 0.11979316363636672

CELLS 100 350
4 0 51 52 1
4 1 52 53 2
4 2 53 54 3
4 3 54 55 4
4 4 55 56 5
4 5 56 57 6
4 6 57 58 7
4 7 58 59 8
4 8 59 60 9
4 9 60 61 10
4 10 61 62 11
4 11 62 63 12
4 12 63 64 13
4 13 64 65 14
4 14 65 66 15
4 15 66 67 16
4 16 67 68 17
4 17 68 69 18
4 18 69 70 19
4 19 70 71 20
4 20 71 72 21
4 21 72 73 22
4 22 73 74 23
4 23 74 75 24
4 24 75 76 25
4 25 76 77 26
4 26 77 78 27
4 27 78 79 28
4 28 79 80 29
4 29 80 81 30
4 30 81 82 31
4 31 82 83 32
4 32 83 84 33
4 33 84 85 34
4 34 85 86 35
4 35 86 87 36
4 36 87 88 37
4 37 88 89 38
4 38 89 90 39
4 39 90 91 40
4 40 91 92 41
4 41 92 93 42
4 42 93 94 43
4 43 94 95 44
4 44 95 96 45
4 45 96 97 46
4 46 97 98 47
4 47 98 99 48
4 48 99 100 49
4 49 100 101 50
1 102
1 103
1 104
1 105
1 106
1 107
1 108
1 109
1 110
1 111
1 112
1 113
1 114
1 115
1 116
1 117
1 118
1 119
1 120
1 121
1 122
1 123
1 124
1 125
1 126
1 127
1 128
1 129
1 130
1 131
1 132
1 133
1 134
1 135
1 136
1 137
1 138
1 139
1 140
1 141
1 142
1 143
1 144
1 145
1 146
1 147
1 148
1 149
1 150
1 151

CELL_TYPES 100
7
7
7
7
7
7
7
7
7
7
7
7
7
7
7
7
7
7
7
7
7
7
7
7
7
7
7
7
7
7
7
7
7
7
7
7
7
7
7
7
7
7
7
7
7
7
7
7
7
7
7
7
7
7
7
7
7
7
7
7
7
7
7
7
7
7
7
7
7
7
7
7
7
7
7
7
7
7
7
7
7
7
7
7
7
7
7
7
7
7
7
7
7
7
7
7
7
7
7
7

POINT_DATA 152

VECTORS centroid-point-cyl-mean float
0.010122747781034003 2.970416910919e-20 -0.0018916144324157276
0.01372333426977245 7.426042277297999e-20 -0.0010688609733395791
0.017556826288301984 -1.1009107676093998e-19 -0.00045780959861706216
0.021385875806344486 9.542464326327999e-20 0.00013255382275044122
0.025188717199405616 -1.2475751025861e-19 0.0007201482309470067
0.0288747333378298 1.4854405192807998e-19 0.001194637114652661
0.03232860263174997 4.158583675287e-20 0.001410862212016788
0.03567693526144149 6.3121359356999995e-21 0.0013224843579428827
0.039041271560347174 9.505334114940999e-20 0.001016779170820158
0.042329505152342115 -1.782250146552e-20 0.0006138083932142042
0.04557157708275472 -2.9110085727008e-19 0.00020084691410191327
0.04879331551880824 -1.782250146552e-20 -0.00016987443794221364
0.05196703857181131 -1.4555042863504e-19 -0.0004739400232210948
0.05507162008501601 1.6634334701147e-19 -0.0007082255455298658
0.05810836105106519 -1.8973538018495998e-19 -0.0008836440760600286
0.061085723325512674 1.3069834408043998e-19 -0.0010175168155157888
0.06400879136194332 1.8416584847699e-19 -0.001127577707254967
0.06687555615241011 -5.94083382184e-21 -0.0012277625198140328
0.06967835718937167 7.72308396839e-20 -0.0013263855895434818
0.07240919570126642 3.9209503224132996e-19 -0.0014271324949937342
0.07506362782697427 1.2475751025861e-19 -0.0015306083418583358
0.07764170012286091 -1.0099417497125e-19 -0.0016355657532635395
0.08014570659926788 5.9705379909476e-19 -0.0017398364473795195
0.08257780664996847 -6.742846387786599e-19 -0.0018410131526058295
0.08493913184003136 4.9011879030169994e-20 -0.0019369237898966799
0.08722990934680407 3.7798555191447e-19 -0.0020259353317291814
0.08944972931198159 1.169601658674e-20 -0.0021071205190511277
0.09159775401989283 6.304709893425999e-19 -0.002180316672546979
0.09367286808572144 -1.7971022311061e-19 -0.002246102151832601
0.09567379828505176 -2.2278126831889998e-20 -0.0023056987632523703
0.09759931397211291 -8.168646505028e-20 -0.0023607022647827614
0.09944848195130446 -3.6684648849851997e-19 -0.002412693809290776
0.10122080551556853 3.4456836166663e-19 -0.002462965813978083
0.10291624621866599 2.376333528735e-20 -0.002512380634354936
0.10453516231114085 -2.97041691092e-21 -0.0025613283706516212
0.10607819731584046 -1.4555042863504e-19 -0.0026097549007438243
0.10754615149485575 4.158583675287e-20 -0.002657236136998393
0.10893980771994566 6.950775571550899e-19 -0.002703078927872168
0.11025957917772096 1.7228418083331e-19 -0.0027464329900004714
0.11150526171189862 -1.1287584261493e-19 -0.002786401784275997
0.11267605402074299 -1.1881667643676999e-19 -0.0028221433614242764
0.11377072983713984 2.019883499425e-19 -0.0028529549202113143
0.11478785171647468 -4.336808689942e-19 -0.0028783371660533194
0.11572574860729704 -2.3763335287353997e-19 -0.0028980365508205273
0.11658255567139682 7.6042672919531e-19 -0.002912065137417993
0.1173567979393216 -3.6239086313213996e-19 -0.0029206991866682092
0.1180481895440835 -8.0795339977002e-19 -0.002924458630495155
0.1186581851169032 4.1585836752869e-19 -0.002924070395798873
0.11918992887796935 2.9704169109191997e-19 -0.002920419099095677
0.11964749981441415 3.8021336459766e-19 -0.002914488964363444
0.12003468521320437 6.356692189367099e-19 -0.0029073009469562645
0.009100707568104157 -2.97041691092e-21 -0.006212993241944024
0.014188691899803181 5.792312976292e-20 -0.007228892261057122
0.018284671971237072 4.455625366379e-20 -0.007974780507892725
0.021886415474848212 -4.3071045208329995e-20 -0.00827002394684413
0.025223714575751253 -3.861541984195e-20 -0.008140225139500822
0.02851568231156996 -3.7130211386489996e-20 -0.007751519283975376
0.03192027384250706 -5.940833821838e-20 -0.007318662739924207
0.03533312472323194 4.7526670574709996e-20 -0.0069707766105224795
0.03864894210772972 5.421010862428e-20 -0.006702226685381185
0.041951129467823645 -6.089354667384e-20 -0.0064606140975765345
0.045208762774709914 1.5149126245687998e-19 -0.006208498480286776
0.048395396933223464 -1.336687609914e-20 -0.0059287203557266705
0.0515306730545659 -1.336687609914e-20 -0.005621101524204141
0.05462576058048753 -1.782250146552e-20 -0.005297776270156929
0.05767325806591473 6.534917204021999e-20 -0.004977662142563618
0.060661943501202124 1.782250146552e-20 -0.004680078492205029
0.06358474875757461 3.4308315321116996e-19 -0.004419347258977046
0.06644059207512941 1.1733146798131e-19 -0.004202222650466876
0.0692319126505934 1.4258001172412e-19 -0.004028605706719036
0.07196022839320466 -2.316925190517e-19 -0.0038945675282149313
0.07462440386158065 1.0099417497125e-19 -0.0037945429234546822
0.07722148583323188 5.1685254249994e-19 -0.0037223892098821616
0.07974843791107669 1.188166764368e-20 -0.003672047883759917
0.08220304615745072 1.6040251318964e-19 -0.003637988539102048
0.08458395521049919 -2.5545585433905e-19 -0.0036154806874103503
0.08689040241464074 5.94083382184e-21 -0.003600729157216099
0.08912199700911864 -6.23787551293e-20 -0.003590926366261794
0.09127856659707831 2.7327835580456996e-19 -0.0035842429761679374
0.09336004709201685 5.0200045794534e-19 -0.0035797660122126383
0.09536640569945855 3.564500293103e-20 -0.0035773787301601693
0.09729758374038577 -8.911250732758e-20 -0.0035774796054096818
0.09915347377532145 -1.6634334701147e-19 -0.0035805885648004785
0.10093393940611507 1.8416584847699e-19 -0.0035870678637920945
0.1026388415020731 -2.6139668816089e-19 -0.0035969747054953897
0.1042680482729806 -2.8218960653731996e-19 -0.0036100119296844906
0.10582142914399734 -2.3614814441808e-19 -0.0036255480079795187
0.1072988454785699 -1.6931376392239e-19 -0.0036426825552804704
0.10870016063891891 -6.4161005275855e-19 -0.0036603380175139967
0.11002529577810366 2.6436710507181e-19 -0.0036773621571744327
0.11127427586506025 5.435862946982099e-19 -0.0036926294639041896
0.11244721429534103 -1.4258001172412e-19 -0.003705132697757131
0.1135442566918484 -4.7526670574709996e-20 -0.003714058455611533
0.1145655366519423 2.8516002344824e-19 -0.003718842962038474
0.11551120852669254 9.653854960487e-20 -0.0037192062485981426
0.11638155886807595 2.6139668816089e-19 -0.003715164522496519
0.11717718601379996 -6.237875512930299e-19 -0.0037070218583473346
0.11789921254538059 -4.2774003517236e-19 -0.0036953433964610535
0.11854935183874381 3.3268669402294996e-19 -0.0036809130183924677
0.11912960940180828 -5.2873421014362e-19 -0.003664679016151886
0.11964155019861944 -6.1190588364934995e-19 -0.0036476915963460374
0.12008533307944726 -5.4655671160913e-19 -0.0036310361855396954
0.009218568187400081 -3.1003726507719996e-20 -0.005410766489344852
0.013557370520096378 1.2624271871409999e-20 -0.005892211109850776
0.01750226008263457 5.940833821838e-20 -0.006132458642509653
0.021245927386112147 7.277521431752e-20 -0.0060472556506671726
0.024900917221180496 -9.356813269394999e-20 -0.005720055990603614
0.02855090850304269 -2.1832564295256e-19 -0.005325630843128662
0.0321900863123579 7.203261008979e-20 -0.005016871435172545
0.0357612190304635 4.455625366379e-20 -0.004834968294868498
0.03926113314932124 -3.8318378150857996e-19 -0.00473224184810485
0.04270060001232412 -5.3467504396549995e-20 -0.004649085303284229
0.04606632382733827 -2.5545585433905e-19 -0.004547585503985091
0.04935827573876751 -2.5248543742809998e-20 -0.004411660012619467
0.052584007071499246 2.970416910919e-20 -0.0042423498689792725
0.05574415566041454 6.23787551293e-20 -0.0040522731074689395
0.05883484875376406 2.1387001758618e-19 -0.00385929784948522
0.06185279205243928 3.9209503224132996e-19 -0.003680421472039621
0.06479702809444883 -1.0693500879309e-19 -0.0035275062444250996
0.0676683763831925 -1.0693500879309e-19 -0.0034058291476143994
0.07046762754489289 -6.7725505568958e-19 -0.0033153797236673854
0.07319441503939854 3.0595294182468e-19 -0.0032531340239826127
0.07584757664470225 4.0100628297408997e-19 -0.003214621311891548
0.07842600568960614 1.7822501465514998e-19 -0.0031948391851961684
0.08092904105352552 1.3069834408043998e-19 -0.003188869858571412
0.08335639362143264 -2.264942894576e-20 -0.0031922930777549597
0.08570797218339288 -1.188166764368e-20 -0.0032014360819381522
0.08798376650050091 4.7526670574709996e-20 -0.0032135028026517524
0.09018378122497862 2.376333528735e-20 -0.0032266181523609144
0.0923079937581157 -1.2030188489223e-19 -0.0032398057236901682
0.09435632732185581 -4.0249149142954996e-19 -0.0032529043927754233
0.0963286483675199 4.9308920721259e-19 -0.003266372004343078
0.09822480087686723 4.544737873706399e-19 -0.003280950073088005
0.1000446619343711 2.7030793889365e-19 -0.003297328613630827
0.10178818499244185 2.6436710507181e-19 -0.00331593426952443
0.10345541234645067 -4.2774003517236e-19 -0.003336833613818278
0.1050464571676662 -5.0200045794534e-19 -0.003359720385548436
0.10656146901249912 -2.9704169109191997e-19 -0.0033839603409402696
0.10800059735212796 -2.6733752198272997e-19 -0.003408672097906742
0.10936395216334031 -7.129000586206e-20 -0.00343282655524224
0.11065157063570367 1.9307709920975e-19 -0.003455351204689038
0.11186340294030288 1.6634334701147e-19 -0.003475228953835529
0.11299930928832587 -1.0099417497125e-19 -0.003491583967717702
0.11405906921970382 -3.5645002931029997e-19 -0.003503749542401839
0.11504240044735253 2.2278126831893997e-19 -0.003511315168597961
0.11594901303302117 2.6436710507181e-19 -0.0035141517501903184
0.11677879678941065 9.208292423848999e-20 -0.0035124154333272244
0.11753215095102405 -1.4109480326865998e-19 -0.003506531697698571
0.11821027496378815 -1.6615769595453998e-19 -0.0034971622838568263
0.11881515802466326 -2.792191896264e-19 -0.0034851581998159562
0.11934909054311856 -2.376333528735e-20 -0.0034715024876191066
0.11981375998048448 0.0 -0.0034572466571221095

VECTORS centroid-point-mean float
0.0018916144324157276 0.00010918798414939567 8.547945205479667e-5
0.0010688609733395791 0.00012302364009873974 0.000142146948941474
0.00045780959861706216 0.0001368502738486096 0.00019777361425267842
-0.00013255382275044122 0.00014879056320542345 0.00025235944798841683
-0.0007201482309470067 0.00015963271953015856 0.0003059044501486847
-0.001194637114652661 0.00016732766583642367 0.0003584086207334831
-0.001410862212016788 0.00016771345857379794 0.00040987195974281237
-0.0013224843579428827 0.00016425975316385739 0.000460294467176673
-0.001016779170820158 0.0001620309831896642 0.0005096761430350578
-0.0006138083932142042 0.0001576397636724692 0.000558016987317977
-0.00020084691410191327 0.00015265021802029463 0.0006053170000254276
0.00016987443794221364 0.00014902736516902166 0.0006515761811574128
0.0004739400232210948 0.0001457620931781637 0.0006967945307139192
0.0007082255455298658 0.00014173378429356827 0.0007409720486949654
0.0008836440760600286 0.0001371034844351479 0.0007841087351005396
0.0010175168155157888 0.00013268271253495494 0.0008262045899306419
0.001127577707254967 0.00012921474184819233 0.0008672596131852712
0.0012277625198140328 0.00012688531078782034 0.0009072738048644346
0.0013263855895434818 0.0001252310592379524 0.0009462471649681307
0.0014271324949937342 0.00012356946146685742 0.0009841796934963501
0.0015306083418583358 0.00012144996314170494 0.0010210713904491118
0.0016355657532635395 0.00011886233737969516 0.001056922255826394
0.0017398364473795195 0.00011608245784199506 0.0010917322896282083
0.0018410131526058295 0.00011342943309262824 0.0011255014918545594
0.0019369237898966799 0.00011113779373253485 0.0011582298625054368
0.0020259353317291814 0.00010933853706330071 0.0011899174015808376
0.0021071205190511277 0.00010806630715285917 0.00122056410908078
0.002180316672546979 0.00010727108736365214 0.0012501699850052577
0.002246102151832601 0.0001068327361076393 0.0012787350293542439
0.0023056987632523703 0.00010657903535590325 0.001306259242127775
0.0023607022647827614 0.00010632187484970975 0.0013327426233258261
0.002412693809290776 0.00010590583733949327 0.0013581851729484197
0.002462965813978083 0.00010523910643360507 0.0013825868909955411
0.002512380634354936 0.00010430518719421781 0.001405947777467197
0.0025613283706516212 0.00010316072035417348 0.0014282678323633724
0.0026097549007438243 0.00010192388334479615 0.001449547055684084
0.002657236136998393 0.00010075694652600731 0.0014697854474293255
0.002703078927872168 9.983431656205875e-5 0.0014889830075990994
0.0027464329900004714 9.926563503863968e-5 0.0015071397361933981
0.002786401784275997 9.903203894170205e-5 0.001524255633212232
0.0028221433614242764 9.897988221757077e-5 0.0015403306986555949
0.0028529549202113143 9.885337838007331e-5 0.0015553649325234893
0.0028783371660533194 9.833825682845166e-5 0.001569358334815917
0.0028980365508205273 9.704782420649946e-5 0.0015823109055328613
0.002912065137417993 9.450516183209073e-5 0.0015942226446743594
0.0029206991866682092 9.022442139756364e-5 0.001605093552240372
0.002924458630495155 8.3840272737946e-5 0.0016149236282309173
0.002924070395798873 7.522721212785536e-5 0.0016237128726459967
0.002920419099095677 6.457480497568846e-5 0.001631461285485597
0.002914488964363444 5.240427253574269e-5 0.0016381688667497392
0.0029073009469562645 3.952631479570716e-5 0.0016438356164384029
0.006212993241944024 -9.074789669402973e-5 8.547945205479664e-5
0.007228892261057122 -0.00013256035559965543 0.00014214694894147304
0.007974780507892725 -0.00015369873892152457 0.0001977736142526786
0.00827002394684413 -0.00016187368535020344 0.00025235944798841764
0.008140225139500822 -0.00016066636526525005 0.00030590445014868646
0.007751519283975376 -0.00015534402003650414 0.0003584086207334825
0.007318662739924207 -0.0001523312324689868 0.0004098719597428142
0.0069707766105224795 -0.0001496660210673288 0.0004602944671766721
0.006702226685381185 -0.0001432981593144573 0.0005096761430350634
0.0064606140975765345 -0.00013735394482577165 0.000558016987317987
0.006208498480286776 -0.00013084911602810088 0.0006053170000254368
0.0059287203557266705 -0.00012227851445582202 0.0006515761811574147
0.005621101524204141 -0.00011301181730239931 0.0006967945307139256
0.005297776270156929 -0.00010445312233459369 0.0007409720486949694
0.004977662142563618 -9.666442248343533e-5 0.0007841087351005382
0.004680078492205029 -8.901079905618506e-5 0.0008262045899306351
0.004419347258977046 -8.089186941569155e-5 0.0008672596131852745
0.004202222650466876 -7.223808174065513e-5 0.0009072738048644345
0.004028605706719036 -6.360356262121482e-5 0.0009462471649681335
0.0038945675282149313 -5.5734310308554065e-5 0.0009841796934963569
0.0037945429234546822 -4.911809533032127e-5 0.0010210713904491098
0.0037223892098821616 -4.3779391461228195e-5 0.0010569222558263914
0.003672047883759917 -3.9436993256316076e-5 0.0010917322896282088
0.003637988539102048 -3.5750064511595144e-5 0.001125501491854553
0.0036154806874103503 -3.244894865241664e-5 0.0011582298625054368
0.003600729157216099 -2.935694366536065e-5 0.0011899174015808373
0.003590926366261794 -2.638570992589613e-5 0.0012205641090807815
0.0035842429761679374 -2.3525939832403195e-5 0.001250169985005244
0.0035797660122126383 -2.083497681132906e-5 0.0012787350293542513
0.0035773787301601693 -1.8420723202450728e-5 0.0013062592421277705
0.0035774796054096818 -1.6407204848047386e-5 0.0013327426233258276
0.0035805885648004785 -1.4887521409371808e-5 0.0013581851729484156
0.0035870678637920945 -1.3894261338312256e-5 0.001382586890995543
0.0035969747054953897 -1.3388886768960092e-5 0.001405947777467189
0.0036100119296844906 -1.3264805348717778e-5 0.001428267832363374
0.0036255480079795187 -1.3359638050504472e-5 0.0014495470556840832
0.0036426825552804704 -1.3473120754581057e-5 0.001469785447429329
0.0036603380175139967 -1.3399317335946818e-5 0.0014889830075990997
0.0036773621571744327 -1.300358887658254e-5 0.0015071397361933925
0.0036926294639041896 -1.2286227658382154e-5 0.0015242556332122261
0.003705132697757131 -1.1388474094794623e-5 0.0015403306986555996
0.003714058455611533 -1.0559475657878042e-5 0.0015553649325234912
0.003718842962038474 -1.0112115373341415e-5 0.0015693583348159114
0.0037192062485981426 -1.0436339594064254e-5 0.0015823109055328674
0.003715164522496519 -1.2016275479890964e-5 0.0015942226446743505
0.0037070218583473346 -1.5348197497261834e-5 0.0016050935522403749
0.0036953433964610535 -2.081031037913438e-5 0.0016149236282309205
0.0036809130183924677 -2.854266073571657e-5 0.0016237128726459946
0.003664679016151886 -3.837112323111649e-5 0.0016314612854856016
0.0036476915963460374 -4.9790070363662904e-5 0.0016381688667497414
0.0036310361855396954 -6.200385099491193e-5 0.0016438356164384025
0.005410766489344852 -5.471414157911336e-5 0.00011381320049813517
0.005892211109850776 -7.486292120202302e-5 0.00016996028159707726
0.006132458642509653 -8.263455447014351e-5 0.0002250665311205476
0.0060472556506671726 -8.239960863884844e-5 0.00027913194906855113
0.005720055990603614 -7.763384631733309e-5 0.0003321565354410885
0.005325630843128662 -7.349807913827772e-5 0.00038414029023814926
0.005016871435172545 -7.175231860891521e-5 0.0004350832134597414
0.004834968294868498 -6.90752255989737e-5 0.00048498530510586636
0.00473224184810485 -6.52856956948192e-5 0.0005338465651765216
0.004649085303284229 -6.17899001086034e-5 0.000581666993671707
0.004547585503985091 -5.7213163532805816e-5 0.0006284465905914196
0.004411660012619467 -5.138519211593124e-5 0.0006741853559356693
0.0042423498689792725 -4.561236767990734e-5 0.0007188832897044443
0.0040522731074689395 -4.0564420715677824e-5 0.0007625403918977513
0.00385929784948522 -3.590493345610038e-5 0.0008051566625155883
0.003680421472039621 -3.097631887905654e-5 0.0008467321015579583
0.0035275062444250996 -2.5411225104131466e-5 0.000887266709024852
0.0034058291476143994 -1.9426070382480517e-5 0.0009267604849162882
0.0033153797236673854 -1.3651637260567732e-5 0.0009652134292322423
0.0032531340239826127 -8.692224038510113e-6 0.0010026255419727337
0.003214621311891548 -4.797519981660671e-6 0.001038996823137752
0.0031948391851961684 -1.8380448663679182e-6 0.0010743272727273044
0.003188869858571412 4.938397038612346e-7 0.0011086168907413886
0.0031922930777549597 2.496273416645687e-6 0.0011418656771800002
0.0032014360819381522 4.382331730320219e-6 0.00117407363204314
0.0032135028026517524 6.272110430299833e-6 0.0012052407553308061
0.0032266181523609144 8.200305655185526e-6 0.001235367047043018
0.0032398057236901682 1.0127634192511301e-5 0.001264452507179744
0.0032529043927754233 1.195558392778457e-5 0.0012924971357410077
0.003266372004343078 1.355214075677641e-5 0.0013195009327268063
0.003280950073088005 1.4792941677120189e-5 0.0013454638981371266
0.003297328613630827 1.559994944127344e-5 0.0013703860319719849
0.00331593426952443 1.5961856163256073e-5 0.0013942673342313679
0.003336833613818278 1.5938103899429034e-5 0.001417107804915285
0.003359720385548436 1.5651409187679833e-5 0.00143890744402373
0.0033839603409402696 1.5272819181941534e-5 0.001459666251556703
0.003408672097906742 1.4996743602054614e-5 0.0014793842275142176
0.00343282655524224 1.4986404120377797e-5 0.0014980613718962527
0.003455351204689038 1.5303528046928532e-5 0.001515697684702811