# vtk DataFile Version 4.0
 
ASCII
DATASET UNSTRUCTURED_GRID
POINTS 51 float
0.0034458014422159783 0.003797836921183228 0.006240000000000175
0.0036900627846638773 0.002693478286566652 0.010376727272727542
0.0038282745642455383 0.0023100731699397135 0.014437473840445638
0.0037079283378247023 0.002285530315236275 0.018422239703154455
0.0033762035407059886 0.0025275645687941914 0.022331024860853994
0.0030025019463168225 0.0027835116248867233 0.026163829313544256
0.002778564742747585 0.0026777405823942457 0.029920653061225235
0.0027836052549005132 0.0024123414294245932 0.033601496103896934
0.0029529222680929356 0.0023199500298232067 0.03720635844155936
0.0031830031489444863 0.0021259818805034417 0.04073524007421251
0.0033991163644867227 0.0019240676279223858 0.04418814100185638
0.0035584971737158675 0.0018423948944206474 0.047565061224490966
0.0036438602147845357 0.0017962977690832726 0.05086600074211628
0.0036575055897601363 0.0016963453410984122 0.05409095955473232
0.003614672883929243 0.0015493148598755414 0.05723993766233907
0.0035364592028987365 0.0014115009221287546 0.06031293506493654
0.003444118344918985 0.0013356756102078774 0.06330995176252474
0.003354805777422227 0.0013348293180169626 0.06623098775510365
0.003279308672326989 0.0013750387005815163 0.0690760430426733
0.003222608456389419 0.001406659017761186 0.07184511762523367
0.0031853978615195965 0.0013972476836092683 0.07453821150278477
0.0031655679538487606 0.0013468151352748795 0.07715532467532658
0.003159496361073144 0.0012765890240650614 0.07969645714285911
0.003163042828000607 0.0012112633076293527 0.08216160890538236
0.003172241467519109 0.0011696065464776798 0.08455077996289635
0.0031837470363424306 0.0011629958109958874 0.08686397031540105
0.0031950868318333385 0.001195850694401595 0.08910117996289647
0.0032047535321358773 0.0012663961733903248 0.09126240890538262
0.0032121821955917763 0.001367639020972588 0.09334765714285947
0.0032176427882274626 0.001488611784327251 0.09535692467532707
0.0032219536768231328 0.0016169525078238666 0.09729021150278537
0.003226071734329285 0.0017424018280707719 0.09914751762523441
0.003230798178343667 0.0018590220857630827 0.10092884304267416
0.0032366193541480542 0.0019660277085686143 0.10263418775510463
0.003243648486598172 0.002067611622867935 0.10426355176252583
0.003251639245485254 0.002172094911400761 0.10581693506493775
0.003260046934326686 0.0022906593794397617 0.1072943376623404
0.003268117567035445 0.002435029383821583 0.10869575955473376
0.0032749890717290045 0.0026118804731271672 0.11002120074211783
0.0032797925799528723 0.002818215682454085 0.11127066122449264
0.003281744828630787 0.0030409423486848206 0.11244414100185816
0.0032802253028802715 0.003259295013446954 0.11354164007421443
0.003274834101477803 0.003448066160879828 0.11456315844156138
0.0032654285166143935 0.003576635343943484 0.11550869610389908
0.0032521379946156646 0.003607718064771148 0.1163782530612275
0.003235358506902393 0.003503349673218635 0.11717182931354662
0.0032157284328139467 0.0032343842667940264 0.11788942486085646
0.003194088860066257 0.0027892524069676517 0.11853103970315705
0.003171431766584201 0.0021795001913537805 0.11909667384044835
0.0031488398812465363 0.0014410437885497632 0.11958632727273036
0.0031274221527171466 0.0006311308322505225 0.12000000000000308

CELLS 1 52
51 0 1 2 3 4 5 6 7 8 9 10 11 12 13 14 15 16 17 18 19 20 21 22 23 24 25 26 27 28 29 30 31 32 33 34 35 36 37 38 39 40 41 42 43 44 45 46 47 48 49 50

CELL_TYPES 1
7

POINT_DATA 51

VECTORS centroid-point-cyl-mean float
0.00730487270798778 5.94083382184e-21 -0.0034458014422159822
0.01072060139044325 3.750151350035e-20 -0.0036900627846638816
0.014621117910201918 7.05474016343e-21 -0.0038282745642455366
0.01856347393410897 -2.079291837643e-20 -0.0037079283378247045
0.022473612392882085 1.3069834408043998e-19 -0.0033762035407059947
0.026311478508707086 -3.2674586020109995e-20 -0.0030025019463168216
0.03004023592179012 -8.911250732758e-20 -0.002778564742747589
0.03368797903692532 1.2772792716953e-19 -0.0027836052549005123
0.03727861688183552 4.9011879030169994e-20 -0.002952922268092934
0.04079068009803162 9.208292423848999e-20 -0.0031830031489444863
0.044230010642512405 1.1881667643676999e-19 -0.0033991163644867257
0.04760072970277417 3.861541984195e-20 -0.003558497173715868
0.050897708368571784 -5.049708748563e-20 -0.0036438602147845296
0.05411755254137011 2.8218960653731996e-19 -0.0036575055897601354
0.05726090149590282 -4.544737873706399e-19 -0.0036146728839292473
0.06032944945049985 4.455625366379e-20 -0.00353645920289874
0.06332403983882351 -2.8218960653731996e-19 -0.0034441183449189804
0.0662444375651641 1.2475751025861e-19 -0.003354805777422227
0.06908972755671677 -1.544616793678e-19 -0.0032793086723269856
0.07185888682811553 4.3665128590512e-19 -0.0032226084563894155
0.07455130632740926 -2.019883499425e-19 -0.0031853978615195917
0.07716707871083153 2.019883499425e-19 -0.0031655679538487584
0.0797066807780874 2.673375219827e-20 -0.003159496361073148
0.08217053691391715 6.356692189367099e-19 -0.0031630428280006104
0.08455886926755617 -6.6240297113497995e-19 -0.003172241467519105
0.08687175546868642 3.089233587356e-19 -0.0031837470363424362
0.08910920451706313 2.2575168522986e-19 -0.0031950868318333385
0.09127119500960452 7.72308396839e-20 -0.003204753532135874
0.09335767526321827 1.0396459188216999e-19 -0.003212182195591774
0.09536854328645483 -1.0693500879309e-19 -0.0032176427882274687
0.09730364736056532 3.1189377564652e-19 -0.0032219536768231306
0.09916282678189763 -1.1584625952585e-19 -0.003226071734329287
0.10094596238110823 1.396095948132e-19 -0.0032307981783436727
0.10265301632733885 -4.8714837339075e-19 -0.0032366193541480486
0.1042840507650134 2.376333528735e-20 -0.003243648486598168
0.10583922591762181 -5.3467504396549995e-20 -0.00325163924548525
0.10731878686787759 2.7327835580456996e-19 -0.0032600469343266876
0.10872303119983605 1.2475751025861e-19 -0.0032681175670354404
0.11005219912543002 5.5843837925281e-19 -0.00327498907172901
0.1113063447830743 -1.1881667643676999e-19 -0.0032797925799528684
0.11248525314908518 -4.752667057470699e-19 -0.003281744828630784
0.11358841065323137 -2.970416910919e-20 -0.0032802253028802737
0.11461503580401701 1.3663917790228e-19 -0.003274834101477803
0.11556405667856429 1.4852084554595998e-19 -0.003265428516614398
0.11643415914248678 3.8021336459766e-19 -0.003252137994615661
0.11722419137539732 -1.782250146552e-20 -0.0032353585069023975
0.11793378538658382 -2.1981085140802e-19 -0.0032157284328139506
0.1185638532694562 -3.9803586606317e-19 -0.0031940888600662538
0.11911661488198115 -2.8516002344824e-19 -0.003171431766584195
0.11959500941837456 5.4952712852005e-19 -0.003148839881246535
0.12000165968072339 3.787281561422e-19 -0.0031274221527171427

VECTORS centroid-point-mean float
0.0034458014422159822 5.202516330387727e-5 8.547945205479693e-5
0.0036900627846638816 3.68969628296774e-5 0.00014214694894147423
0.0038282745642455366 3.164483794437729e-5 0.00019777361425268072
0.0037079283378247045 3.130863445528796e-5 0.0002523594479884187
0.0033762035407059947 3.462417217525714e-5 0.0003059044501486866
0.0030025019463168216 3.8130296231319804e-5 0.000358408620733485
0.002778564742747589 3.668137784101115e-5 0.00040987195974281367
0.0027836052549005123 3.304577300581546e-5 0.00046029446717667255
0.002952922268092934 3.178013739483447e-5 0.0005096761430350619
0.0031830031489444863 2.9123039458941894e-5 0.0005580169873179801
0.0033991163644867257 2.6357090793448492e-5 0.0006053170000254326
0.003558497173715868 2.5238286224928813e-5 0.0006515761811574134
0.0036438602147845296 2.460681875456094e-5 0.000696794530713923
0.0036575055897601354 2.3237607412297263e-5 0.0007409720486949642
0.0036146728839292473 2.122349123116212e-5 0.0007841087351005366
0.00353645920289874 1.9335629070247462e-5 0.000826204589930641
0.0034441183449189804 1.8296926167233027e-5 0.0008672596131852727
0.003354805777422227 1.8285333123507608e-5 0.0009072738048644349
0.0032793086723269856 1.8836146583290963e-5 0.0009462471649681298
0.0032226084563894155 1.9269301613155358e-5 0.0009841796934963586
0.0031853978615195917 1.914037922750362e-5 0.0010210713904491128
0.0031655679538487584 1.844952240100967e-5 0.001056922255826392
0.003159496361073148 1.7487520877595752e-5 0.0010917322896282138
0.0031630428280006104 1.6592648049708083e-5 0.001125501491854556
0.003172241467519105 1.602200748599192e-5 0.0011582298625054355
0.0031837470363424362 1.5931449465680227e-5 0.001189917401580842
0.0031950868318333385 1.638151636164558e-5 0.0012205641090807771
0.003204753532135874 1.7347892786145866e-5 0.0012501699850052536
0.003212182195591774 1.8734781109195724e-5 0.0012787350293542391
0.0032176427882274687 2.0391942251032226e-5 0.0013062592421277763
0.0032219536768231306 2.215003435373122e-5 0.0013327426233258309
0.003226071734329287 2.3868518192724017e-5 0.0013581851729484186
0.0032307981783436727 2.5466055969344217e-5 0.00138258689099554
0.0032366193541480486 2.6931886418726852e-5 0.0014059477774671933
0.003243648486598168 2.8323446888604216e-5 0.0014282678323633722
0.00325163924548525 2.975472481368949e-5 0.0014495470556840902
0.0032600469343266876 3.137889560874905e-5 0.0014697854474293318
0.0032681175670354404 3.3356566901657464e-5 0.0014889830075990951
0.00327498907172901 3.5779184563371995e-5 0.0015071397361934033
0.0032797925799528684 3.860569428017248e-5 0.0015242556332122322
0.003281744828630784 4.1656744502495016e-5 0.0015403306986556005
0.0032802253028802737 4.464787689651245e-5 0.0015553649325234916
0.003274834101477803 4.723378302573377e-5 0.0015693583348159147
0.003265428516614398 4.8995004711538784e-5 0.0015823109055328722
0.003252137994615661 4.942079540778927e-5 0.0015942226446743486
0.0032353585069023975 4.799109141394516e-5 0.0016050935522403692
0.0032157284328139506 4.4306633791690854e-5 0.0016149236282309144
0.0031940888600662538 3.820893708172723e-5 0.001623712872645987
0.003171431766584195 2.9856167004836873e-5 0.0016314612854855903
0.003148839881246535 1.97403258705289e-5 0.001638168866749733
0.0031274221527171427 8.645627839032404e-6 0.0016438356164383968

VECTORS centroid-point-cyl-variance float
0.0 0.0 0.0
0.0 0.0 0.0
0.0 0.0 0.0
0.0 0.0 0.0
0.0 0.0 0.0
0.0 0.0 0.0
0.0 0.0 0.0
0.0 0.0 0.0
0.0 0.0 0.0
0.0 0.0 0.0
0.0 0.0 0.0
9.999999999999999e-33 0.0 0.0
0.0 0.0 0.0
0.0 0.0 0.0
0.0 0.0 0.0
0.0 0.0 0.0
0.0 0.0 0.0
0.0 0.0 0.0
0.0 0.0 0.0
0.0 0.0 0.0
9.999999999999999e-33 0.0 0.0
9.999999999999999e-33 0.0 0.0
9.999999999999999e-33 0.0 0.0
0.0 0.0 0.0
9.999999999999999e-33 0.0 0.0
9.999999999999999e-33 0.0 0.0
1.9999999999999998e-32 0.0 0.0
1.9999999999999998e-32 0.0 0.0
0.0 0.0 0.0
9.999999999999999e-33 0.0 0.0
9.999999999999999e-33 0.0 0.0
0.0 0.0 0.0
9.999999999999999e-33 0.0 0.0
1.9999999999999998e-32 0.0 0.0
9.999999999999999e-33 0.0 0.0
0.0 0.0 0.0
9.999999999999999e-33 0.0 0.0
3.0e-32 0.0 0.0
9.999999999999999e-33 0.0 0.0
9.999999999999999e-33 0.0 0.0
0.0 0.0 0.0
0.0 0.0 0.0
0.0 0.0 0.0
9.999999999999999e-33 0.0 0.0
1.9999999999999998e-32 0.0 0.0
3.0e-32 0.0 0.0
9.999999999999999e-33 0.0 0.0
9.999999999999999e-33 0.0 0.0
9.999999999999999e-33 0.0 0.0
9.999999999999999e-33 0.0 0.0
0.0 0.0 0.0

VECTORS centroid-point-cart-variance float
0.0 2.6509971674937573e-5 2.684118025062666e-5
0.0 5.677646622372371e-5 5.813326080809038e-5
0.0 0.00010549641833074458 0.00010824055481501951
0.0 0.00017001156731606947 0.0001745263316646941
0.0 0.00024915860563420124 0.00025580987198538143
0.0 0.00034150989381031085 0.0003506540968449389
0.0 0.0004451238348484603 0.0004571225988414833
0.0 0.0005597454412439488 0.000574921527328742
0.0 0.0006854018958661142 0.000704032601008645
0.0 0.0008206044228337055 0.0008429629289166886
0.0 0.0009647976659607528 0.0009911290721092503
0.0 0.0011174412161174445 0.0011479630636281714
0.0 0.0012775882781191816 0.001312502310939442
0.0 0.0014443339714925406 0.0014838259420120656
0.0 0.0016169802430015116 0.0016612153201769383
0.0 0.0017949190958713708 0.0018440403872380757
0.0 0.001977525813217788 0.002031655734276954
0.0 0.002164129803578175 0.0022233722246363485
0.0 0.0023540263173973445 0.002418468397966376
0.0 0.0025465087365286023 0.002616221898672229
0.0 0.0027409072255023953 0.002815947096482317
0.0 0.002936617512142524 0.003017023099581396
0.0 0.0031330847388892735 0.003218878036565061
0.0 0.003329771835379527 0.0034209582724177494
0.0 0.003526145679795957 0.0036227149388925904
0.0 0.0037216794844746968 0.0038236062565028973
0.0 0.003915857840231931 0.004023102444333374
0.0 0.004108179440757361 0.004220688371783077
0.0 0.004298156765944724 0.004415863250340478
0.0 0.0044853138542226625 0.004608138465318814
0.0 0.004669185906136334 0.004797037190008874
0.0 0.004849322988070402 0.004982097990636045
0.0 0.0050252952353272125 0.005162879890689728
0.0 0.005196697475558205 0.005338966871063246
0.0 0.0053631519621711215 0.005509970530570184
0.0 0.005524308987787773 0.0056755306830433136
0.0 0.005679846133898308 0.005835314626998052
0.0 0.0058294651866024625 0.005989014143620623
0.0 0.0059728800497672666 0.006136333732241554
0.0 0.00610980163757987 0.006276975905753748
0.0 0.006239927109467198 0.0064106307126009935
0.0 0.006362934941555595 0.00653697093966529
0.0 0.006478487093970686 0.006655654221772088
0.0 0.006586225481360958 0.006766319606333231
0.0 0.006685776990153226 0.006868592436808933
0.0 0.006776801409582529 0.006962131005576904
0.0 0.006859067348203051 0.0070467004460029285
0.0 0.0069325152908255045 0.007122234107859981
0.0 0.006997264808540858 0.007188840575084626
0.0 0.0070535456734335 0.00724673661743113
0.0 0.007101571679592031 0.007296124376255362

CELL_DATA 1

VECTORS centroid-cell-cart-variance float
0.0 7.936753616859019 8.153886595237946

VECTORS centroid-cell-cyl-mean float
4.011690445080701 -1.7109601406894498e-18 -0.16725989674070438

VECTORS centroid-cell-mean float
0.16725989674070438 0.0014627446811666324 0.05493519302615348

VECTORS centroid-cell-cyl-variance float
3.3999999999999996e-30 1.9999999999999998e-32 0.0