# vtk DataFile Version 4.0
 
ASCII
DATASET UNSTRUCTURED_GRID
POINTS 152 float
0.0018916144324157278 0.00797072284290618 0.0062400000000001985
0.0010688609733395774 0.008980725727208394 0.010376727272727579
0.00045780959861706216 0.009990069990948971 0.01443747384044568
-0.00013255382275044122 0.010861711113996204 0.0184222397031545
-0.0007201482309470062 0.011653188525701923 0.022331024860854046
-0.0011946371146526612 0.012214919606059565 0.026163829313544305
-0.0014108622120167862 0.012243082475887448 0.029920653061225287
-0.0013224843579428829 0.011990961980962224 0.03360149610389699
-0.0010167791708201568 0.011828261772846183 0.037206358441559416
-0.0006138083932142036 0.01150770274809116 0.040735240074212566
-0.00020084691410191335 0.011143465915482237 0.04418814100185643
0.0001698744379422134 0.010878997657339223 0.04756506122449102
0.0004739400232210948 0.010640632802006937 0.05086600074211633
0.0007082255455298663 0.01034656625343142 0.05409095955473236
0.0008836440760600275 0.010008554363766794 0.05723993766233912
0.001017516815515788 0.00968583801505257 0.06031293506493659
0.0011275777072549662 0.009432676154918813 0.06330995176252478
0.0012277625198140337 0.009262627687512405 0.06623098775510369
0.00132638558954348 0.009141867324371169 0.06907604304267334
0.0014271324949937316 0.009020570687082027 0.07184511762523371
0.0015306083418583354 0.008865847309345259 0.0745382115027848
0.0016355657532635378 0.008676950628718321 0.07715532467532663
0.0017398364473795213 0.00847401942246691 0.07969645714285915
0.0018410131526058282 0.008280348615762417 0.0821616089053824
0.001936923789896676 0.008113058942476303 0.08455077996289638
0.0020259353317291845 0.007981713205621747 0.08686397031540109
0.0021071205190511294 0.007888840422160525 0.0891011799628965
0.002180316672546981 0.007830789377547945 0.09126240890538265
0.0022461021518325993 0.007798789735859425 0.09334765714285952
0.0023056987632523672 0.007780269580982546 0.09535692467532711
0.0023607022647827588 0.007761496864030309 0.09729021150278541
0.0024126938092907785 0.007731126125784561 0.09914751762523444
0.0024629658139780817 0.0076824547696543385 0.10092884304267419
0.0025123806343549317 0.007614278665178672 0.10263418775510465
0.0025613283706516186 0.0075307325858566055 0.10426355176252584
0.0026097549007438213 0.007440443484172304 0.10581693506493776
0.0026572361369983943 0.0073552570963992155 0.10729433766234044
0.002703078927872171 0.007287905109032815 0.10869575955473378
0.0027464329900004744 0.007246391357822771 0.11002120074211785
0.0027864017842759935 0.00722933884274552 0.11127066122449267
0.0028221433614242725 0.007225531401885686 0.1124441410018582
0.0028529549202113143 0.007216296621747196 0.11354164007421444
0.002878337166053322 0.007178692748478562 0.11456315844156138
0.0028980365508205295 0.00708449116707654 0.1155086961038991
0.0029120651374179955 0.006898876813743594 0.1163782530612275
0.002920699186668212 0.006586382762021655 0.11717182931354662
0.0029244586304951574 0.006120339909871117 0.11788942486085649
0.002924070395798875 0.005491586485335126 0.11853103970315705
0.0029204190990956736 0.00471396076322667 0.11909667384044835
0.0029144889643634465 0.0038255118951103823 0.11958632727273037
0.002907300946956263 0.002885420980087712 0.12000000000000309
0.00810836247161673 -0.00872082084398563 0.006240000000000105
0.011553668218636777 -0.01616826403535858 0.010376727272727437
0.013939669461130968 -0.02072991729308806 0.014437473840445508
0.01522937481955013 -0.023443012081043515 0.01842223970315431
0.015665258855664974 -0.024849307301929004 0.022331024860853838
0.015593919129225274 -0.0255107123186318 0.026163829313544096
0.015346845607040699 -0.026018285098085354 0.029920653061225072
0.015101874093430702 -0.026323520225188298 0.033601496103896775
0.014862026584832213 -0.026204985199245717 0.0372063584415592
0.014573437775420557 -0.026019180722259717 0.04073524007421236
0.01419900620025263 -0.025734127234757168 0.044188141001856224
0.013724365381036831 -0.025267413394335077 0.047565061224490814
0.01315362078947486 -0.024736707329687718 0.050866000742116134
0.012505345722450946 -0.024254317395900612 0.05409095955473217
0.01180775930753689 -0.023828403651798218 0.057239937662338924
0.011093286365047583 -0.023411510356642695 0.06031293506493641
0.010393740257911042 -0.022955326023924926 0.0633099517625246
0.009735935550246806 -0.022448565790469364 0.06623098775510353
0.009138077920677518 -0.021925447170787444 0.06907604304267317
0.008609036340576482 -0.02143507599020134 0.07184511762523355
0.00814976642050338 -0.021008551193598703 0.07453821150278464
0.007755574555604428 -0.020643591345055442 0.07715532467532646
0.007418476102154011 -0.020315702171140478 0.07969645714285899
0.007129131854184944 -0.019995992616769837 0.08216160890538225
0.006878194500386411 -0.019660750641518187 0.08455077996289623
0.006657182150182169 -0.019293156372881693 0.08686397031540093
0.006458985770179963 -0.018883118488875195 0.08910117996289636
0.0062780641109025665 -0.01842678343908254 0.09126240890538251
0.0061104223268693076 -0.017925813123687923 0.09334765714285938
0.005953474863152749 -0.017386361605638636 0.09535692467532696
0.005805707912944253 -0.01681668056079546 0.09729021150278527
0.005666205509444805 -0.0162237710650706 0.09914751762523431
0.0055342952714404255 -0.015611275965910677 0.10092884304267406
0.00540933551352742 -0.014978725161261561 0.10263418775510454
0.005290608834437834 -0.01432175126609807 0.10426355176252573
0.005177292279709552 -0.013632950806913865 0.10581693506493765
0.00506847932631156 -0.012903133771438601 0.1072943376623403
0.004963233484525269 -0.012123597791812117 0.10869575955473366
0.004860657316914594 -0.011291652180959648 0.11002120074211776
0.004759964966983509 -0.010415153798420222 0.11127066122449256
0.004660549230250331 -0.009512824810917772 0.1124441410018581
0.004562036450887143 -0.00861170981145377 0.11354164007421433
0.004464324907751246 -0.007743813601916368 0.11456315844156131
0.004367604413995984 -0.0069469321254556834 0.11550869610389901
0.004272356566208671 -0.006265758182146195 0.11637825306122743
0.004179336467604936 -0.005745749593190429 0.11717182931354655
0.0040895378397703165 -0.005423482662437246 0.11788942486085642
0.004004144252868402 -0.005317749828134772 0.11853103970315698
0.003924469769049782 -0.0054238815242648895 0.1190966738404483
0.003851892631895805 -0.005712360531132094 0.11958632727273032
0.0037877857699997984 -0.006131739611261047 0.12000000000000305
0.007743320934564478 -0.007214475758489757 0.008308363636363801
0.009750835451407484 -0.011465468533397815 0.012407100556586512
0.01097904857723874 -0.01395837587718119 0.016429856771799953
0.011478899871493482 -0.015295257313652432 0.020376632282004124
0.011482843576133887 -0.015901493841240115 0.02424742708719902
0.011277099360266059 -0.016266123771025556 0.02804224118738464
0.011076601566431817 -0.01659892143912141 0.03176107458256098
0.010944054813253213 -0.016720786564936703 0.035403927272728036
0.010834475689590494 -0.01666706665544737 0.03897079925788583
0.010687834577462932 -0.016576094400934653 0.04246169053803434
0.010467392783463586 -0.016372769789306914 0.04587660111317357
0.010159721621587296 -0.016061591464090277 0.04921553098330353
0.009769883138066048 -0.015748234390165827 0.0524784801484242
0.009316398088944175 -0.015486630315737283 0.05566544860853559
0.008825537238666154 -0.015253168705812923 0.0587764363636377
0.008325771798955828 -0.014997749371466435 0.06181144341373055
0.007843045956442817 -0.014689546450093956 0.0647704697588141
0.007397023565266309 -0.014339692983985854 0.06765351539888839
0.0069993576085374005 -0.01398989143393914 0.0704605803339534
0.006654268640011457 -0.013680557944371603 0.07319166456400913
0.006360274627930663 -0.013426703709737357 0.07584676808905559
0.006112194271739797 -0.013215863812175316 0.07842589090909277
0.0059029591836252775 -0.013022589540687704 0.08092903302412066
0.005724989500777071 -0.012822102777078168 0.08335619443413929
0.005571123634166449 -0.0125958686118877 0.08570737513914863
0.005435194951483339 -0.012332283869686052 0.08798257513914869
0.005312323354355712 -0.012026259498020591 0.09018179443413947
0.0051989847672119 -0.011678526321863001 0.09230503302412098
0.005092936560643893 -0.011294683108892211 0.09435229090909321
0.004992993669540767 -0.010883420006786179 0.09632356808905616
0.0048986420426550895 -0.01045359148597291 0.09821886456400983
0.004809645245740569 -0.010011445024688117 0.10003818033395423
0.004725779850404569 -0.009559158743335468 0.10178151539888934
0.004646692756112789 -0.009094552253880454 0.10344886975881518
0.0045718483267297005 -0.008611616268625864 0.10504024341373173
0.004500538231975694 -0.008101569144310736 0.10655563636363902
0.004431931687172631 -0.007554629060540015 0.10799504860853701
0.00436514804027403 -0.006963931681432463 0.10935848014842575
0.004299337703246347 -0.006330585967196415 0.1106459309833052
0.004233760967175223 -0.005666133197922847 0.11185740111317535
0.004167856915631001 -0.00499147198043522 0.11299289053803625
0.004101297020272476 -0.004333947608735583 0.11405239925788786
0.004034020210264442 -0.0037261316583201303 0.11503592727273018
0.003966248078606562 -0.0032068378677481872 0.11594347458256327
0.0038984804281908788 -0.0028186579687805766 0.11677504118738702
0.003831472592411141 -0.0026001217618737815 0.11753062708720151
0.0037661969130262725 -0.002576471384563726 0.11821023228200674
0.0037037914450811374 -0.0027524183510796475 0.11881385677180266
0.0036454994082869853 -0.0031086566884817365 0.11934150055658933
0.003592603139625815 -0.003602670943997665 0.11979316363636669

CELLS 100 350
4 0 51 52 1
4 1 52 53 2
4 2 53 54 3
4 3 54 55 4
4 4 55 56 5
4 5 56 57 6
4 6 57 58 7
4 7 58 59 8
4 8 59 60 9
4 9 60 61 10
4 10 61 62 11
4 11 62 63 12
4 12 63 64 13
4 13 64 65 14
4 14 65 66 15
4 15 66 67 16
4 16 67 68 17
4 17 68 69 18
4 18 69 70 19
4 19 70 71 20
4 20 71 72 21
4 21 72 73 22
4 22 73 74 23
4 23 74 75 24
4 24 75 76 25
4 25 76 77 26
4 26 77 78 27
4 27 78 79 28
4 28 79 80 29
4 29 80 81 30
4 30 81 82 31
4 31 82 83 32
4 32 83 84 33
4 33 84 85 34
4 34 85 86 35
4 35 86 87 36
4 36 87 88 37
4 37 88 89 38
4 38 89 90 39
4 39 90 91 40
4 40 91 92 41
4 41 92 93 42
4 42 93 94 43
4 43 94 95 44
4 44 95 96 45
4 45 96 97 46
4 46 97 98 47
4 47 98 99 48
4 48 99 100 49
4 49 100 101 50
1 102
1 103
1 104
1 105
1 106
1 107
1 108
1 109
1 110
1 111
1 112
1 113
1 114
1 115
1 116
1 117
1 118
1 119
1 120
1 121
1 122
1 123
1 124
1 125
1 126
1 127
1 128
1 129
1 130
1 131
1 132
1 133
1 134
1 135
1 136
1 137
1 138
1 139
1 140
1 141
1 142
1 143
1 144
1 145
1 146
1 147
1 148
1 149
1 150
1 151

CELL_TYPES 100
7
7
7
7
7
7
7
7
7
7
7
7
7
7
7
7
7
7
7
7
7
7
7
7
7
7
7
7
7
7
7
7
7
7
7
7
7
7
7
7
7
7
7
7
7
7
7
7
7
7
7
7
7
7
7
7
7
7
7
7
7
7
7
7
7
7
7
7
7
7
7
7
7
7
7
7
7
7
7
7
7
7
7
7
7
7
7
7
7
7
7
7
7
7
7
7
7
7
7
7

POINT_DATA 152

VECTORS centroid-point-cyl-mean float
0.010122747781034003 2.970416910919e-20 -0.0018916144324157276
0.01372333426977245 7.426042277297999e-20 -0.0010688609733395791
0.017556826288301984 -1.1009107676093998e-19 -0.00045780959861706216
0.021385875806344486 9.542464326327999e-20 0.00013255382275044122
0.025188717199405616 -1.2475751025861e-19 0.0007201482309470067
0.0288747333378298 1.4854405192807998e-19 0.001194637114652661
0.03232860263174997 4.158583675287e-20 0.001410862212016788
0.03567693526144149 6.3121359356999995e-21 0.0013224843579428827
0.039041271560347174 9.505334114940999e-20 0.001016779170820158
0.042329505152342115 -1.782250146552e-20 0.0006138083932142042
0.04557157708275472 -2.9110085727008e-19 0.00020084691410191327
0.04879331551880824 -1.782250146552e-20 -0.00016987443794221364
0.05196703857181131 -1.4555042863504e-19 -0.0004739400232210948
0.05507162008501601 1.6634334701147e-19 -0.0007082255455298658
0.05810836105106519 -1.8973538018495998e-19 -0.0008836440760600286
0.061085723325512674 1.3069834408043998e-19 -0.0010175168155157888
0.06400879136194332 1.8416584847699e-19 -0.001127577707254967
0.06687555615241011 -5.94083382184e-21 -0.0012277625198140328
0.06967835718937167 7.72308396839e-20 -0.0013263855895434818
0.07240919570126642 3.9209503224132996e-19 -0.0014271324949937342
0.07506362782697427 1.2475751025861e-19 -0.0015306083418583358
0.07764170012286091 -1.0099417497125e-19 -0.0016355657532635395
0.08014570659926788 5.9705379909476e-19 -0.0017398364473795195
0.08257780664996847 -6.742846387786599e-19 -0.0018410131526058295
0.08493913184003136 4.9011879030169994e-20 -0.0019369237898966799
0.08722990934680407 3.7798555191447e-19 -0.0020259353317291814
0.08944972931198159 1.169601658674e-20 -0.0021071205190511277
0.09159775401989283 6.304709893425999e-19 -0.002180316672546979
0.09367286808572144 -1.7971022311061e-19 -0.002246102151832601
0.09567379828505176 -2.2278126831889998e-20 -0.0023056987632523703
0.09759931397211291 -8.168646505028e-20 -0.0023607022647827614
0.09944848195130446 -3.6684648849851997e-19 -0.002412693809290776
0.10122080551556853 3.4456836166663e-19 -0.002462965813978083
0.10291624621866599 2.376333528735e-20 -0.002512380634354936
0.10453516231114085 -2.97041691092e-21 -0.0025613283706516212
0.10607819731584046 -1.4555042863504e-19 -0.0026097549007438243
0.10754615149485575 4.158583675287e-20 -0.002657236136998393
0.10893980771994566 6.950775571550899e-19 -0.002703078927872168
0.11025957917772096 1.7228418083331e-19 -0.0027464329900004714
0.11150526171189862 -1.1287584261493e-19 -0.002786401784275997
0.11267605402074299 -1.1881667643676999e-19 -0.0028221433614242764
0.11377072983713984 2.019883499425e-19 -0.0028529549202113143
0.11478785171647468 -4.336808689942e-19 -0.0028783371660533194
0.11572574860729704 -2.3763335287353997e-19 -0.0028980365508205273
0.11658255567139682 7.6042672919531e-19 -0.002912065137417993
0.1173567979393216 -3.6239086313213996e-19 -0.0029206991866682092
0.1180481895440835 -8.0795339977002e-19 -0.002924458630495155
0.1186581851169032 4.1585836752869e-19 -0.002924070395798873
0.11918992887796935 2.9704169109191997e-19 -0.002920419099095677
0.11964749981441415 3.8021336459766e-19 -0.002914488964363444
0.12003468521320437 6.356692189367099e-19 -0.0029073009469562645
0.010723353775423779 5.179664488415e-20 -0.008108362471616727
0.019211695157107724 -4.9011879030169994e-20 -0.011553668218636785
0.02526202925087015 -2.1999650246495e-19 -0.013939669461130982
0.02981532711731382 1.0396459188216999e-19 -0.01522937481955013
0.0334090219060926 -1.0693500879309e-19 -0.01566525885566496
0.03654233719061036 5.19822959411e-21 -0.01559391912922527
0.03965093490770989 1.8268064002153e-19 -0.015346845607040695
0.04268475439153988 -9.802375806033e-20 -0.015101874093430695
0.04550839876082735 -2.4134637401219998e-20 -0.014862026584832242
0.04833588262731242 -1.1287584261493e-19 -0.014573437775420549
0.05113547799458419 -8.317167350574e-20 -0.014199006200252615
0.0538597923216363 -8.317167350574e-20 -0.013724365381036833
0.05656195471349612 -2.1535522604163999e-19 -0.013153620789474879
0.05927987700639028 -5.109117086781e-19 -0.01250534572245096
0.062001639366886706 6.2972838511487e-19 -0.011807759307536882
0.06469736434605682 -4.3071045208327997e-19 -0.011093286365047583
0.06734312871435276 3.3268669402294996e-19 -0.010393740257911057
0.06993198013116532 -5.643792130746e-20 -0.009735935550246797
0.07247223576013256 -1.2475751025861e-19 -0.009138077920677523
0.07497455174450435 -1.7822501465514998e-19 -0.008609036340576484
0.07744226363742167 -6.7725505568958e-19 -0.008149766420503367
0.07986928063640425 7.0115762926963e-19 -0.00775557455560443
0.08224507909796215 2.376333528735e-20 -0.00741847610215401
0.08455985867213185 -7.6636756301715e-19 -0.007129131854184952
0.08680656373870625 -4.9308920721259e-19 -0.006878194500386407
0.08898075759277013 -3.3268669402294996e-19 -0.006657182150182173
0.09108014292174425 3.564500293103e-20 -0.006458985770179959
0.09310410102204984 -3.8021336459766e-19 -0.006278064110902578
0.09505324755212824 1.1287584261493e-19 -0.006110422326869312
0.09692898768386073 -1.9010668229883e-19 -0.005953474863152743
0.09873290231397293 3.3268669402294996e-19 -0.005805707912944256
0.10046611866105876 4.0694711679592997e-19 -0.005666205509444801
0.10212905216057064 1.3069834408043998e-19 -0.0055342952714404325
0.10372144765479621 -3.5050919548845997e-19 -0.005409335513527416
0.10524258066707051 -3.564500293103e-20 -0.00529060883443783
0.10669152306645999 -4.3962170281604e-19 -0.005177292279709549
0.10806741301393266 -2.4357418669537e-19 -0.005068479326311552
0.10936978453210063 7.3072256008612e-19 -0.004963233484525266
0.11059912306032603 6.950775571550899e-19 -0.004860657316914595
0.1117570377111907 -4.7526670574709996e-20 -0.004759964966983503
0.11284581818361256 4.5150337045972e-19 -0.004660549230250332
0.11386775477113416 -7.3072256008612e-19 -0.004562036450887148
0.11482457890716376 0.0 -0.0044643249077512435
0.11571740898230745 -4.3962170281604e-19 -0.004367604413995979
0.11654680395094605 -6.7725505568958e-19 -0.004272356566208669
0.11731262175516556 -5.940833821838e-20 -0.004179336467604934
0.11801411211466731 4.9903004103442e-19 -0.004089537839770318
0.11865026690381263 3.9209503224132996e-19 -0.004004144252868402
0.11922011663577331 1.1881667643676999e-19 -0.0039244697690497855
0.11972268261870077 -1.4258001172412e-19 -0.003851892631895805
0.12015655716880795 -2.1387001758618e-19 -0.0037877857699997993
0.011003525198039429 3.675890927262e-20 -0.007743320934564472
0.016893582003577143 4.9011879030169994e-20 -0.009750835451407498
0.02155867460375371 9.208292423848999e-20 -0.010979048577238745
0.02547846226613476 -1.7822501465514998e-19 -0.0114788998714935
0.028996469211475244 2.2278126831889998e-20 -0.011482843576133907
0.032418421820714464 6.572047415409e-20 -0.011277099360266074
0.03583699278093975 3.4753877857754997e-19 -0.011076601566431832
0.03915383467404924 8.317167350574e-20 -0.01094405481325322
0.04238530766309899 -5.049708748563e-20 -0.010834475689590502
0.045582475458628806 1.544616793678e-19 -0.010687834577462921
0.04871067768232018 -2.3837595710127e-19 -0.01046739278346357
0.05177009957811407 -2.0495876685341999e-19 -0.010159721621587294
0.054790489732216716 1.3663917790228e-19 -0.009769883138066041
0.057779562886247464 4.7526670574709996e-20 -0.009316398088944172
0.06072337792956471 -2.2575168522986e-19 -0.008825537238666158
0.06360492923585513 0.0 -0.008325771798955817
0.06641533352838724 2.1387001758618e-19 -0.00784304595644281
0.06915652493223325 -3.9209503224132996e-19 -0.007397023565266321
0.07183599684928789 2.6139668816089e-19 -0.006999357608537413
0.07445923332481826 -5.985390075502199e-19 -0.006654268640011452
0.0770260254853127 -8.289319692033999e-20 -0.0063602746279306545
0.07953162528948389 -2.0792918376433998e-19 -0.006112194271739801
0.0819700934766115 -5.643792130746e-20 -0.0059029591836252705
0.08433659626857118 3.5645002931029997e-19 -0.00572498950077706
0.08662799812607164 -1.7822501465514998e-19 -0.005571123634166452
0.08884266291348115 1.544616793678e-19 -0.00543519495148333
0.09098014599282146 5.3467504396549995e-20 -0.005312323354355717
0.09304088939081832 -1.2475751025861e-19 -0.005198984767211905
0.09502591576156696 7.9607173212634e-19 -0.005092936560643897
0.09693646682467419 2.4357418669537e-19 -0.004992993669540761
0.09877359430130553 8.049829828590999e-19 -0.004898642042655092
0.10053788617238336 1.4555042863504e-19 -0.004809645245740569
0.10222942038755091 -1.4406522017958e-19 -0.0047257798504045665
0.10384786726300564 4.9930851761982e-19 -0.0046466927561127904
0.10539265947481372 3.5645002931029997e-19 -0.0045718483267296935
0.10686317917533655 1.1881667643676999e-19 -0.004500538231975695
0.10825896241975828 -7.3072256008612e-19 -0.004431931687172632
0.10957998688098684 2.376333528735e-20 -0.004365148040274031
0.1108268846528242 4.2774003517236e-19 -0.004299337703246348
0.11200081807384436 2.8516002344824e-19 -0.004233760967175222
0.11310308618544447 -3.2080502637926998e-19 -0.004167856915631003
0.1141347137305556 -3.564500293103e-20 -0.004101297020272476
0.11509625806529064 7.129000586206e-20 -0.004034020210264443
0.11598781447801972 -3.0298252491375996e-19 -0.003966248078606566
0.11680905391732657 2.4951502051721e-19 -0.0038984804281908783
0.11755938472400823 3.5645002931029997e-19 -0.0038314725924111425
0.11823830691007652 -3.3268669402294996e-19 -0.0037661969130262703
0.11884573348576646 -3.5050919548845997e-19 -0.003703791445081145
0.11938198147754636 -5.88142548362e-19 -0.0036454994082869858
0.11984732492609121 -2.6139668816089e-19 -0.003592603139625813

VECTORS centroid-point-mean float
0.0018916144324157276 0.00010918798414939567 8.547945205479667e-5
0.0010688609733395791 0.00012302364009873974 0.000142146948941474
0.00045780959861706216 0.0001368502738486096 0.00019777361425267842
-0.00013255382275044122 0.00014879056320542345 0.00025235944798841683
-0.0007201482309470067 0.00015963271953015856 0.0003059044501486847
-0.001194637114652661 0.00016732766583642367 0.0003584086207334831
-0.001410862212016788 0.00016771345857379794 0.00040987195974281237
-0.0013224843579428827 0.00016425975316385739 0.000460294467176673
-0.001016779170820158 0.0001620309831896642 0.0005096761430350578
-0.0006138083932142042 0.0001576397636724692 0.000558016987317977
-0.00020084691410191327 0.00015265021802029463 0.0006053170000254276
0.00016987443794221364 0.00014902736516902166 0.0006515761811574128
0.0004739400232210948 0.0001457620931781637 0.0006967945307139192
0.0007082255455298658 0.00014173378429356827 0.0007409720486949654
0.0008836440760600286 0.0001371034844351479 0.0007841087351005396
0.0010175168155157888 0.00013268271253495494 0.0008262045899306419
0.001127577707254967 0.00012921474184819233 0.0008672596131852712
0.0012277625198140328 0.00012688531078782034 0.0009072738048644346
0.0013263855895434818 0.0001252310592379524 0.0009462471649681307
0.0014271324949937342 0.00012356946146685742 0.0009841796934963501
0.0015306083418583358 0.00012144996314170494 0.0010210713904491118
0.0016355657532635395 0.00011886233737969516 0.001056922255826394
0.0017398364473795195 0.00011608245784199506 0.0010917322896282083
0.0018410131526058295 0.00011342943309262824 0.0011255014918545594
0.0019369237898966799 0.00011113779373253485 0.0011582298625054368
0.0020259353317291814 0.00010933853706330071 0.0011899174015808376
0.0021071205190511277 0.00010806630715285917 0.00122056410908078
0.002180316672546979 0.00010727108736365214 0.0012501699850052577
0.002246102151832601 0.0001068327361076393 0.0012787350293542439
0.0023056987632523703 0.00010657903535590325 0.001306259242127775
0.0023607022647827614 0.00010632187484970975 0.0013327426233258261
0.002412693809290776 0.00010590583733949327 0.0013581851729484197
0.002462965813978083 0.00010523910643360507 0.0013825868909955411
0.002512380634354936 0.00010430518719421781 0.001405947777467197
0.0025613283706516212 0.00010316072035417348 0.0014282678323633724
0.0026097549007438243 0.00010192388334479615 0.001449547055684084
0.002657236136998393 0.00010075694652600731 0.0014697854474293255
0.002703078927872168 9.983431656205875e-5 0.0014889830075990994
0.0027464329900004714 9.926563503863968e-5 0.0015071397361933981
0.002786401784275997 9.903203894170205e-5 0.001524255633212232
0.0028221433614242764 9.897988221757077e-5 0.0015403306986555949
0.0028529549202113143 9.885337838007331e-5 0.0015553649325234893
0.0028783371660533194 9.833825682845166e-5 0.001569358334815917
0.0028980365508205273 9.704782420649946e-5 0.0015823109055328613
0.002912065137417993 9.450516183209073e-5 0.0015942226446743594
0.0029206991866682092 9.022442139756364e-5 0.001605093552240372
0.002924458630495155 8.3840272737946e-5 0.0016149236282309173
0.002924070395798873 7.522721212785536e-5 0.0016237128726459967
0.002920419099095677 6.457480497568846e-5 0.001631461285485597
0.002914488964363444 5.240427253574269e-5 0.0016381688667497392
0.0029073009469562645 3.952631479570716e-5 0.0016438356164384029
0.008108362471616727 -0.00011946329923267778 8.547945205479614e-5
0.011553668218636785 -0.00022148306897751084 0.00014214694894147388
0.013939669461130982 -0.00028397146976832563 0.0001977736142526825
0.01522937481955013 -0.00032113715179511184 0.0002523594479884167
0.01566525885566496 -0.00034040146988943275 0.0003059044501486866
0.01559391912922527 -0.00034946181258399306 0.00035840862073348295
0.015346845607040695 -0.0003564148643573291 0.00040987195974281156
0.015101874093430695 -0.00036059616746832613 0.00046029446717667027
0.014862026584832242 -0.000358972399989664 0.0005096761430350596
0.014573437775420549 -0.0003564271331816391 0.0005580169873179785
0.014199006200252615 -0.00035252229088707986 0.0006053170000254312
0.013724365381036833 -0.0003461289506073242 0.0006515761811574132
0.013153620789474879 -0.0003388590045162737 0.0006967945307139251
0.01250534572245096 -0.00033225092323151877 0.0007409720486949639
0.011807759307536882 -0.0003264164883808043 0.0007841087351005354
0.011093286365047583 -0.0003207056213238771 0.000826204589930638
0.010393740257911057 -0.00031445652087568564 0.0008672596131852773
0.009735935550246797 -0.00030751459986944356 0.0009072738048644315
0.009138077920677523 -0.0003003485913806474 0.0009462471649681332
0.008609036340576484 -0.000293631177947964 0.000984179693496357
0.008149766420503367 -0.0002877883725150605 0.0010210713904491029
0.00775557455560443 -0.0002827889225350071 0.0010569222558264011
0.00741847610215401 -0.0002782972900156277 0.0010917322896282142
0.007129131854184952 -0.00027391770707904434 0.0011255014918545559
0.006878194500386407 -0.00026932535125367545 0.001158229862505438
0.006657182150182173 -0.0002642898133271567 0.0011899174015808384
0.006458985770179959 -0.00025867285601198573 0.001220564109080775
0.006278064110902578 -0.00025242169094635315 0.00125016998500525
0.006110422326869312 -0.0002455590838861315 0.0012787350293542454
0.005953474863152743 -0.0002381693370635616 0.001306259242127777
0.005805707912944256 -0.0002303654871341947 0.0013327426233258283
0.005666205509444801 -0.0002222434392475689 0.0013581851729484232
0.0055342952714404325 -0.00021385309542343796 0.0013825868909955303
0.005409335513527416 -0.00020518801590770387 0.0014059477774671927
0.00529060883443783 -0.00019618837350821245 0.0014282678323633666
0.005177292279709549 -0.00018675275077964466 0.001449547055684088
0.005068479326311552 -0.000176755257143004 0.0014697854474293223
0.004963233484525266 -0.00016607668207963596 0.0014889830075991031
0.004860657316914595 -0.00015468016686246092 0.0015071397361934064
0.004759964966983503 -0.00014267333970439602 0.0015242556332122309
0.004660549230250332 -0.00013031266864272988 0.001540330698655597
0.004562036450887148 -0.00011796862755416255 0.0015553649325234853
0.0044643249077512435 -0.00010607963838243357 0.001569358334815913
0.004367604413995979 -9.516345377339437e-5 0.0015823109055328674
0.004272356566208669 -8.583230386502087e-5 0.0015942226446743594
0.004179336467604934 -7.870889853686703e-5 0.0016050935522403688
0.004089537839770318 -7.429428304712078e-5 0.001614923628230912
0.004004144252868402 -7.284588805665344e-5 0.0016237128726459909
0.0039244697690497855 -7.42997469077527e-5 0.0016314612854855949
0.003851892631895805 -7.825151412510877e-5 0.001638168866749736
0.0037877857699997993 -8.399643303097932e-5 0.0016438356164384003
0.007743320934564472 -9.88284350478038e-5 0.00011381320049813572
0.009750835451407498 -0.00015706121278626878 0.00016996028159707566
0.010979048577238745 -0.00019121062845453422 0.0002250665311205498
0.0114788998714935 -0.00020952407278976052 0.00027913194906854924
0.011482843576133907 -0.00021782868275671026 0.0003321565354410834
0.011277099360266074 -0.00022282361330172205 0.00038414029023814774
0.011076601566431832 -0.0002273824854674208 0.00043508321345974555
0.01094405481325322 -0.000229051870752563 0.00048498530510586533
0.010834475689590502 -0.0002283159815814721 0.0005338465651765217
0.010687834577462921 -0.0002270697863141784 0.0005816669936717078
0.01046739278346357 -0.0002242845176617371 0.0006284465905914188
0.010159721621587294 -0.00022002180087795145 0.0006741853559356675
0.009769883138066041 -0.0002157292382214452 0.0007188832897044439
0.009316398088944172 -0.00021214562076352726 0.0007625403918977549
0.008825537238666158 -0.00020894751651798533 0.0008051566625155864
0.008325771798955817 -0.00020544862152694469 0.0008467321015579585
0.00784304595644281 -0.00020122666369991663 0.0008872667090248569
0.007397023565266321 -0.0001964341504655559 0.0009267604849162849
0.006999357608537413 -0.00019164234841013853 0.0009652134292322448
0.006654268640011452 -0.0001874049033475659 0.001002625541972725
0.0063602746279306545 -0.00018392744807860245 0.001038996823137757
0.006112194271739801 -0.00018103923030378461 0.0010743272727272999
0.0059029591836252705 -0.00017839163754367648 0.0011086168907413847
0.00572498950077706 -0.00017564524352162695 0.0011418656771799956
0.005571123634166452 -0.00017254614536832964 0.0011740736320431417
0.00543519495148333 -0.0001689353954751639 0.0012052407553308061
0.005312323354355717 -0.00016474328079480537 0.0012353670470430145
0.005198984767211905 -0.00015997981262825926 0.0012644525071797454
0.005092936560643897 -0.00015472168642320522 0.001292497135741012
0.004992993669540761 -0.0001490879452984553 0.0013195009327268002
0.004898642042655092 -0.0001431998833695091 0.001345463898137124
0.004809645245740569 -0.0001371430825299694 0.0013703860319719875
0.0047257798504045665 -0.00013094738004569784 0.001394267334231362
0.0046466927561127904 -0.000124582907587416 0.00141710780491529
0.0045718483267296935 -0.00011796734614556758 0.0014389074440237294
0.004500538231975695 -0.00011098039923714889 0.0014596662515567068
0.004431931687172632 -0.000103488069322477 0.0014793842275142187
0.004365148040274031 -9.539632440321822e-5 0.0014980613718962477
0.004299337703246348 -8.672035571501648e-5 0.0015156976847028184
0.004233760967175222 -7.761826298527245e-5 0.0015322931659339156