# vtk DataFile Version 4.0
 
ASCII
DATASET UNSTRUCTURED_GRID
POINTS 152 float
0.0018916144324157278 -0.007970722842906267 -0.0062400000000001985
0.0010688609733395774 -0.008980725727208512 -0.010376727272727579
0.00045780959861706216 -0.00999006999094912 -0.01443747384044568
-0.00013255382275044122 -0.010861711113996387 -0.0184222397031545
-0.0007201482309470062 -0.011653188525702131 -0.022331024860854046
-0.0011946371146526612 -0.012214919606059802 -0.026163829313544305
-0.0014108622120167862 -0.012243082475887708 -0.029920653061225287
-0.0013224843579428829 -0.011990961980962507 -0.03360149610389699
-0.0010167791708201568 -0.011828261772846488 -0.037206358441559416
-0.0006138083932142036 -0.011507702748091486 -0.040735240074212566
-0.00020084691410191335 -0.011143465915482582 -0.04418814100185643
0.0001698744379422134 -0.010878997657339587 -0.04756506122449102
0.0004739400232210948 -0.010640632802007322 -0.05086600074211633
0.0007082255455298663 -0.010346566253431824 -0.05409095955473236
0.0008836440760600275 -0.010008554363767217 -0.05723993766233912
0.001017516815515788 -0.00968583801505301 -0.06031293506493659
0.0011275777072549662 -0.00943267615491927 -0.06330995176252478
0.0012277625198140337 -0.009262627687512879 -0.06623098775510369
0.00132638558954348 -0.009141867324371661 -0.06907604304267334
0.0014271324949937316 -0.009020570687082535 -0.07184511762523371
0.0015306083418583354 -0.008865847309345783 -0.0745382115027848
0.0016355657532635378 -0.008676950628718863 -0.07715532467532663
0.0017398364473795213 -0.008474019422467465 -0.07969645714285915
0.0018410131526058282 -0.008280348615762987 -0.0821616089053824
0.001936923789896676 -0.008113058942476888 -0.08455077996289638
0.0020259353317291845 -0.007981713205622347 -0.08686397031540109
0.0021071205190511294 -0.007888840422161137 -0.0891011799628965
0.002180316672546981 -0.00783078937754857 -0.09126240890538265
0.0022461021518325993 -0.0077987897358600625 -0.09334765714285952
0.0023056987632523672 -0.0077802695809831976 -0.09535692467532711
0.0023607022647827588 -0.00776149686403097 -0.09729021150278541
0.0024126938092907785 -0.007731126125785235 -0.09914751762523444
0.0024629658139780817 -0.007682454769655024 -0.10092884304267419
0.0025123806343549317 -0.0076142786651793685 -0.10263418775510465
0.0025613283706516186 -0.00753073258585731 -0.10426355176252584
0.0026097549007438213 -0.007440443484173019 -0.10581693506493776
0.0026572361369983943 -0.007355257096399941 -0.10729433766234044
0.002703078927872171 -0.0072879051090335495 -0.10869575955473378
0.0027464329900004744 -0.007246391357823514 -0.11002120074211785
0.0027864017842759935 -0.007229338842746269 -0.11127066122449267
0.0028221433614242725 -0.007225531401886441 -0.1124441410018582
0.0028529549202113143 -0.007216296621747959 -0.11354164007421444
0.002878337166053322 -0.00717869274847933 -0.11456315844156138
0.0028980365508205295 -0.007084491167077314 -0.1155086961038991
0.0029120651374179955 -0.006898876813744374 -0.1163782530612275
0.002920699186668212 -0.006586382762022437 -0.11717182931354662
0.0029244586304951574 -0.0061203399098719025 -0.11788942486085649
0.002924070395798875 -0.005491586485335912 -0.11853103970315705
0.0029204190990956736 -0.004713960763227454 -0.11909667384044835
0.0029144889643634465 -0.0038255118951111646 -0.11958632727273037
0.002907300946956263 -0.0028854209800884922 -0.12000000000000309
0.00810836247161673 0.00872082084398564 -0.006240000000000105
0.011553668218636777 0.016168264035358603 -0.010376727272727437
0.013939669461130968 0.020729917293088086 -0.014437473840445508
0.01522937481955013 0.023443012081043536 -0.01842223970315431
0.015665258855664974 0.024849307301929007 -0.022331024860853838
0.015593919129225274 0.025510712318631775 -0.026163829313544096
0.015346845607040699 0.026018285098085316 -0.029920653061225072
0.015101874093430702 0.02632352022518824 -0.033601496103896775
0.014862026584832213 0.02620498519924564 -0.0372063584415592
0.014573437775420557 0.026019180722259606 -0.04073524007421236
0.01419900620025263 0.025734127234757036 -0.044188141001856224
0.013724365381036831 0.02526741339433492 -0.047565061224490814
0.01315362078947486 0.024736707329687538 -0.050866000742116134
0.012505345722450946 0.024254317395900407 -0.05409095955473217
0.01180775930753689 0.023828403651797992 -0.057239937662338924
0.011093286365047583 0.023411510356642445 -0.06031293506493641
0.010393740257911042 0.02295532602392466 -0.0633099517625246
0.009735935550246806 0.022448565790469072 -0.06623098775510353
0.009138077920677518 0.021925447170787128 -0.06907604304267317
0.008609036340576482 0.021435075990201002 -0.07184511762523355
0.00814976642050338 0.02100855119359835 -0.07453821150278464
0.007755574555604428 0.020643591345055074 -0.07715532467532646
0.007418476102154011 0.02031570217114009 -0.07969645714285899
0.007129131854184944 0.01999599261676943 -0.08216160890538225
0.006878194500386411 0.019660750641517764 -0.08455077996289623
0.006657182150182169 0.019293156372881252 -0.08686397031540093
0.006458985770179963 0.018883118488874737 -0.08910117996289636
0.0062780641109025665 0.018426783439082068 -0.09126240890538251
0.0061104223268693076 0.01792581312368743 -0.09334765714285938
0.005953474863152749 0.01738636160563813 -0.09535692467532696
0.005805707912944253 0.016816680560794935 -0.09729021150278527
0.005666205509444805 0.016223771065070062 -0.09914751762523431
0.0055342952714404255 0.015611275965910125 -0.10092884304267406
0.00540933551352742 0.014978725161260996 -0.10263418775510454
0.005290608834437834 0.014321751266097494 -0.10426355176252573
0.005177292279709552 0.013632950806913272 -0.10581693506493765
0.00506847932631156 0.012903133771437994 -0.1072943376623403
0.004963233484525269 0.012123597791811495 -0.10869575955473366
0.004860657316914594 0.011291652180959014 -0.11002120074211776
0.004759964966983509 0.010415153798419573 -0.11127066122449256
0.004660549230250331 0.009512824810917113 -0.1124441410018581
0.004562036450887143 0.008611709811453098 -0.11354164007421433
0.004464324907751246 0.007743813601915684 -0.11456315844156131
0.004367604413995984 0.006946932125454988 -0.11550869610389901
0.004272356566208671 0.006265758182145491 -0.11637825306122743
0.004179336467604936 0.005745749593189717 -0.11717182931354655
0.0040895378397703165 0.005423482662436527 -0.11788942486085642
0.004004144252868402 0.005317749828134049 -0.11853103970315698
0.003924469769049782 0.0054238815242641635 -0.1190966738404483
0.003851892631895805 0.005712360531131366 -0.11958632727273032
0.0037877857699997984 0.006131739611260318 -0.12000000000000305
0.007743320934564478 0.007214475758489747 -0.008308363636363801
0.009750835451407484 0.011465468533397803 -0.012407100556586512
0.01097904857723874 0.013958375877181168 -0.016429856771799953
0.011478899871493482 0.015295257313652388 -0.020376632282004124
0.011482843576133887 0.015901493841240052 -0.02424742708719902
0.011277099360266059 0.016266123771025473 -0.02804224118738464
0.011076601566431817 0.016598921439121304 -0.03176107458256098
0.010944054813253213 0.016720786564936575 -0.035403927272728036
0.010834475689590494 0.01666706665544722 -0.03897079925788583
0.010687834577462932 0.01657609440093448 -0.04246169053803434
0.010467392783463586 0.016372769789306716 -0.04587660111317357
0.010159721621587296 0.016061591464090058 -0.04921553098330353
0.009769883138066048 0.015748234390165584 -0.0524784801484242
0.009316398088944175 0.01548663031573702 -0.05566544860853559
0.008825537238666154 0.015253168705812637 -0.0587764363636377
0.008325771798955828 0.014997749371466128 -0.06181144341373055
0.007843045956442817 0.01468954645009363 -0.0647704697588141
0.007397023565266309 0.014339692983985509 -0.06765351539888839
0.0069993576085374005 0.013989891433938771 -0.0704605803339534
0.006654268640011457 0.013680557944371214 -0.07319166456400913
0.006360274627930663 0.013426703709736951 -0.07584676808905559
0.006112194271739797 0.013215863812174893 -0.07842589090909277
0.0059029591836252775 0.013022589540687265 -0.08092903302412066
0.005724989500777071 0.01282210277707771 -0.08335619443413929
0.005571123634166449 0.012595868611887228 -0.08570737513914863
0.005435194951483339 0.012332283869685563 -0.08798257513914869
0.005312323354355712 0.012026259498020088 -0.09018179443413947
0.0051989847672119 0.011678526321862481 -0.09230503302412098
0.005092936560643893 0.011294683108891677 -0.09435229090909321
0.004992993669540767 0.010883420006785629 -0.09632356808905616
0.0048986420426550895 0.010453591485972346 -0.09821886456400983
0.004809645245740569 0.01001144502468754 -0.10003818033395423
0.004725779850404569 0.009559158743334873 -0.10178151539888934
0.004646692756112789 0.009094552253879848 -0.10344886975881518
0.0045718483267297005 0.008611616268625246 -0.10504024341373173
0.004500538231975694 0.008101569144310107 -0.10655563636363902
0.004431931687172631 0.007554629060539373 -0.10799504860853701
0.00436514804027403 0.006963931681431808 -0.10935848014842575
0.004299337703246347 0.006330585967195748 -0.1106459309833052
0.004233760967175223 0.0056661331979221685 -0.11185740111317535
0.004167856915631001 0.0049914719804345295 -0.11299289053803625
0.004101297020272476 0.004333947608734883 -0.11405239925788786
0.004034020210264442 0.0037261316583194204 -0.11503592727273018
0.003966248078606562 0.003206837867747469 -0.11594347458256327
0.0038984804281908788 0.00281865796877985 -0.11677504118738702
0.003831472592411141 0.0026001217618730494 -0.11753062708720151
0.0037661969130262725 0.0025764713845629894 -0.11821023228200674
0.0037037914450811374 0.002752418351078908 -0.11881385677180266
0.0036454994082869853 0.0031086566884809957 -0.11934150055658933
0.003592603139625815 0.0036026709439969237 -0.11979316363636669

CELLS 100 350
4 0 51 52 1
4 1 52 53 2
4 2 53 54 3
4 3 54 55 4
4 4 55 56 5
4 5 56 57 6
4 6 57 58 7
4 7 58 59 8
4 8 59 60 9
4 9 60 61 10
4 10 61 62 11
4 11 62 63 12
4 12 63 64 13
4 13 64 65 14
4 14 65 66 15
4 15 66 67 16
4 16 67 68 17
4 17 68 69 18
4 18 69 70 19
4 19 70 71 20
4 20 71 72 21
4 21 72 73 22
4 22 73 74 23
4 23 74 75 24
4 24 75 76 25
4 25 76 77 26
4 26 77 78 27
4 27 78 79 28
4 28 79 80 29
4 29 80 81 30
4 30 81 82 31
4 31 82 83 32
4 32 83 84 33
4 33 84 85 34
4 34 85 86 35
4 35 86 87 36
4 36 87 88 37
4 37 88 89 38
4 38 89 90 39
4 39 90 91 40
4 40 91 92 41
4 41 92 93 42
4 42 93 94 43
4 43 94 95 44
4 44 95 96 45
4 45 96 97 46
4 46 97 98 47
4 47 98 99 48
4 48 99 100 49
4 49 100 101 50
1 102
1 103
1 104
1 105
1 106
1 107
1 108
1 109
1 110
1 111
1 112
1 113
1 114
1 115
1 116
1 117
1 118
1 119
1 120
1 121
1 122
1 123
1 124
1 125
1 126
1 127
1 128
1 129
1 130
1 131
1 132
1 133
1 134
1 135
1 136
1 137
1 138
1 139
1 140
1 141
1 142
1 143
1 144
1 145
1 146
1 147
1 148
1 149
1 150
1 151

CELL_TYPES 100
7
7
7
7
7
7
7
7
7
7
7
7
7
7
7
7
7
7
7
7
7
7
7
7
7
7
7
7
7
7
7
7
7
7
7
7
7
7
7
7
7
7
7
7
7
7
7
7
7
7
7
7
7
7
7
7
7
7
7
7
7
7
7
7
7
7
7
7
7
7
7
7
7
7
7
7
7
7
7
7
7
7
7
7
7
7
7
7
7
7
7
7
7
7
7
7
7
7
7
7

POINT_DATA 152

VECTORS centroid-point-cyl-mean float
0.01012274778103406 1.782250146552e-20 -0.0018916144324157276
0.013723334269772543 -3.2674586020109995e-20 -0.0010688609733395791
0.01755682628830211 -3.842976878502e-20 -0.00045780959861706216
0.02138587580634455 6.831958895114e-20 0.00013255382275044122
0.025188717199405672 5.643792130746e-20 0.0007201482309470067
0.02887473333782987 4.641276423e-23 0.001194637114652661
0.032328602631750046 2.2575168522986e-19 0.001410862212016788
0.03567693526144158 2.2575168522986e-19 0.0013224843579428827
0.039041271560347215 -1.4258001172412e-19 0.001016779170820158
0.04232950515234221 -4.604146211925e-20 0.0006138083932142042
0.045571577082754756 -1.336687609914e-20 0.00020084691410191327
0.04879331551880828 -3.3268669402294996e-19 -0.00016987443794221364
0.0519670385718114 -3.8021336459766e-19 -0.0004739400232210948
0.05507162008501608 9.505334114940999e-20 -0.0007082255455298658
0.05810836105106523 3.564500293103e-20 -0.0008836440760600286
0.06108572332551273 1.633729301006e-20 -0.0010175168155157888
0.06400879136194337 -3.564500293103e-20 -0.001127577707254967
0.0668755561524102 -2.376333528735e-20 -0.0012277625198140328
0.06967835718937174 1.6634334701147e-19 -0.0013263855895434818
0.0724091957012665 1.3663917790228e-19 -0.0014271324949937342
0.07506362782697436 3.089233587356e-19 -0.0015306083418583358
0.077641700122861 -1.3069834408043998e-19 -0.0016355657532635395
0.0801457065992679 3.3268669402294996e-19 -0.0017398364473795195
0.08257780664996851 4.7229628883615e-19 -0.0018410131526058295
0.08493913184003138 9.505334114940999e-20 -0.0019369237898966799
0.08722990934680411 6.7576984723412e-19 -0.0020259353317291814
0.0894497293119816 5.2242207420791e-19 -0.0021071205190511277
0.09159775401989285 4.789797268857e-20 -0.002180316672546979
0.09367286808572149 3.787281561422e-19 -0.002246102151832601
0.09567379828505179 1.4406522017958e-19 -0.0023056987632523703
0.09759931397211295 -2.4951502051721e-19 -0.0023607022647827614
0.09944848195130447 -8.554800703447299e-19 -0.002412693809290776
0.10122080551556854 2.4951502051721e-19 -0.002462965813978083
0.10291624621866612 8.614209041665999e-20 -0.002512380634354936
0.10453516231114085 -8.317167350574e-20 -0.0025613283706516212
0.10607819731584071 3.1189377564652e-19 -0.0026097549007438243
0.10754615149485576 -2.376333528735e-20 -0.002657236136998393
0.10893980771994567 0.0 -0.002703078927872168
0.11025957917772099 -5.3467504396549995e-20 -0.0027464329900004714
0.11150526171189865 -8.317167350574e-20 -0.002786401784275997
0.11267605402074299 1.6634334701147e-19 -0.0028221433614242764
0.11377072983713984 9.0300674091943e-19 -0.0028529549202113143
0.11478785171647471 5.7626088071832e-19 -0.0028783371660533194
0.1157257486072971 5.940833821838e-20 -0.0028980365508205273
0.11658255567139683 -1.1287584261493e-19 -0.002912065137417993
0.11735679793932167 2.5545585433905e-19 -0.0029206991866682092
0.11804818954408353 -4.5150337045972e-19 -0.002924458630495155
0.11865818511690324 8.317167350574e-20 -0.002924070395798873
0.11918992887796939 9.505334114940999e-20 -0.002920419099095677
0.11964749981441415 -2.019883499425e-19 -0.002914488964363444
0.12003468521320444 -1.782250146552e-20 -0.0029073009469562645
0.01072335377542379 -1.819380357938e-20 -0.008108362471616727
0.01921169515710774 4.455625366379e-20 -0.011553668218636785
0.02526202925087024 4.1400185695939996e-20 -0.013939669461130982
0.029815327117313824 -2.2129605986348e-19 -0.01522937481955013
0.03340902190609261 1.5743209627872e-19 -0.01566525885566496
0.03654233719061036 -3.8838201110267997e-19 -0.01559391912922527
0.039650934907709885 7.426042277299999e-21 -0.015346845607040695
0.042684754391539875 -5.940833821838e-20 -0.015101874093430695
0.045508398760827344 8.948380944144e-20 -0.014862026584832242
0.04833588262731239 -9.505334114940999e-20 -0.014573437775420549
0.0511354779945841 5.903703610452e-20 -0.014199006200252615
0.05385979232163608 3.5645002931029997e-19 -0.013724365381036833
0.0565619547134961 -2.376333528735e-20 -0.013153620789474879
0.059279877006390244 7.426042277297999e-20 -0.01250534572245096
0.0620016393668866 1.6040251318964e-19 -0.011807759307536882
0.06469736434605676 -2.97041691092e-21 -0.011093286365047583
0.06734312871435257 1.188166764368e-20 -0.010393740257911057
0.06993198013116517 3.7724294768673997e-19 -0.009735935550246797
0.07247223576013245 -1.6040251318964e-19 -0.009138077920677523
0.07497455174450424 3.1486419255743e-19 -0.008609036340576484
0.07744226363742161 2.7327835580456996e-19 -0.008149766420503367
0.07986928063640411 -4.0383746159231e-19 -0.00775557455560443
0.08224507909796207 -3.5645002931029997e-19 -0.00741847610215401
0.08455985867213177 -9.2082924238495e-19 -0.007129131854184952
0.08680656373870592 8.7330257181024e-19 -0.006878194500386407
0.0889807575927701 -5.643792130746499e-19 -0.006657182150182173
0.09108014292174417 -1.1881667643676999e-19 -0.006458985770179959
0.09310410102204975 -4.3962170281604e-19 -0.006278064110902578
0.09505324755212823 8.911250732758e-20 -0.006110422326869312
0.09692898768386041 -7.129000586206e-20 -0.005953474863152743
0.0987329023139729 2.3763335287353997e-19 -0.005805707912944256
0.10046611866105873 -5.138821255890199e-19 -0.005666205509444801
0.10212905216057062 -4.7526670574709996e-20 -0.0055342952714404325
0.10372144765479614 1.4258001172412e-19 -0.005409335513527416
0.10524258066707048 -2.376333528735e-20 -0.00529060883443783
0.10669152306645999 4.752667057470699e-19 -0.005177292279709549
0.10806741301393259 -1.7228418083331e-19 -0.005068479326311552
0.10936978453210056 -2.3763335287353997e-19 -0.004963233484525266
0.11059912306032602 -5.2279337632178e-19 -0.004860657316914595
0.11175703771119068 -9.356813269394999e-20 -0.004759964966983503
0.11284581818361253 -4.2551222248917e-19 -0.004660549230250332
0.11386775477113405 3.1783460946835e-19 -0.004562036450887148
0.11482457890716369 7.129000586206e-20 -0.0044643249077512435
0.11571740898230741 2.4951502051721e-19 -0.004367604413995979
0.11654680395094594 1.188166764368e-20 -0.004272356566208669
0.11731262175516549 7.0101839097693e-19 -0.004179336467604934
0.11801411211466728 -6.0596504982751e-19 -0.004089537839770318
0.11865026690381263 4.8714837339075e-19 -0.004004144252868402
0.1192201166357733 -7.129000586206e-20 -0.0039244697690497855
0.11972268261870071 -5.4655671160913e-19 -0.003851892631895805
0.12015655716880792 6.8913672333325e-19 -0.0037877857699997993
0.011003525198039413 8.502818407505999e-20 -0.007743320934564472
0.016893582003577143 2.821896065373e-20 -0.009750835451407498
0.02155867460375371 2.376333528735e-20 -0.010979048577238745
0.025478462266134698 -1.633729301006e-20 -0.0114788998714935
0.02899646921147521 1.2624271871407e-19 -0.011482843576133907
0.032418421820714374 2.376333528735e-20 -0.011277099360266074
0.03583699278093971 7.72308396839e-20 -0.011076601566431832
0.03915383467404922 1.121332383872e-19 -0.01094405481325322
0.04238530766309892 1.9604751612066999e-19 -0.010834475689590502
0.045582475458628674 -4.158583675287e-20 -0.010687834577462921
0.04871067768232002 1.2995573985271e-19 -0.01046739278346357
0.05177009957811405 -2.3466293596262e-19 -0.010159721621587294
0.05479048973221669 -8.317167350574e-20 -0.009769883138066041
0.057779562886247436 -1.9307709920975e-19 -0.009316398088944172
0.06072337792956459 -3.4531096589435996e-19 -0.008825537238666158
0.06360492923585508 -4.7526670574709996e-20 -0.008325771798955817
0.06641533352838723 8.317167350574e-20 -0.00784304595644281
0.06915652493223322 -3.089233587356e-19 -0.007397023565266321
0.07183599684928776 -1.5149126245687998e-19 -0.006999357608537413
0.07445923332481821 3.8318378150857996e-19 -0.006654268640011452
0.07702602548531264 -3.5273700817169997e-20 -0.0063602746279306545
0.0795316252894838 3.6239086313213996e-19 -0.006112194271739801
0.08197009347661145 -1.1287584261493e-19 -0.0059029591836252705
0.08433659626857107 9.802375806033e-20 -0.00572498950077706
0.0866279981260716 1.0693500879309e-19 -0.005571123634166452
0.08884266291348113 3.6239086313213996e-19 -0.00543519495148333
0.09098014599282145 1.544616793678e-19 -0.005312323354355717
0.09304088939081823 3.9209503224132996e-19 -0.005198984767211905
0.09502591576156692 -8.3765756887921e-19 -0.005092936560643897
0.09693646682467416 2.9704169109191997e-19 -0.004992993669540761
0.0987735943013055 -2.019883499425e-19 -0.004898642042655092
0.10053788617238334 2.1981085140802e-19 -0.004809645245740569
0.10222942038755091 -2.8516002344824e-19 -0.0047257798504045665
0.10384786726300552 3.5663568036723997e-19 -0.0046466927561127904
0.10539265947481362 -4.2922524362782e-19 -0.0045718483267296935
0.10686317917533654 6.1784671747119e-19 -0.004500538231975695
0.10825896241975826 9.208292423848999e-20 -0.004431931687172632
0.10957998688098684 -4.3962170281604e-19 -0.004365148040274031
0.1108268846528242 4.0397669988501e-19 -0.004299337703246348
0.11200081807384436 -2.6139668816089e-19 -0.004233760967175222
0.1131030861854444 3.3268669402294996e-19 -0.004167856915631003
0.11413471373055557 3.9209503224132996e-19 -0.004101297020272476
0.11509625806529061 7.1290005862060995e-19 -0.004034020210264443
0.11598781447801972 -3.089233587356e-19 -0.003966248078606566
0.11680905391732647 -4.2774003517236e-19 -0.0038984804281908783
0.11755938472400823 2.0792918376433998e-19 -0.0038314725924111425
0.11823830691007652 -3.6239086313213996e-19 -0.0037661969130262703
0.1188457334857664 -2.4951502051721e-19 -0.003703791445081145
0.11938198147754635 -9.505334114941399e-19 -0.0036454994082869858
0.11984732492609115 -9.683559129596599e-19 -0.003592603139625813

VECTORS centroid-point-mean float
0.0018916144324157276 -0.00010918798414939654 -8.547945205479621e-5
0.0010688609733395791 -0.0001230236400987426 -0.0001421469489414741
0.00045780959861706216 -0.00013685027384861243 -0.00019777361425268048
-0.00013255382275044122 -0.00014879056320542386 -0.000252359447988419
-0.0007201482309470067 -0.00015963271953015453 -0.00030590445014868825
-0.001194637114652661 -0.00016732766583642825 -0.00035840862073348393
-0.001410862212016788 -0.00016771345857379872 -0.0004098719597428155
-0.0013224843579428827 -0.00016425975316385636 -0.0004602944671766735
-0.001016779170820158 -0.00016203098318967095 -0.0005096761430350635
-0.0006138083932142042 -0.00015763976367247747 -0.0005580169873179766
-0.00020084691410191327 -0.00015265021802030152 -0.0006053170000254282
0.00016987443794221364 -0.0001490273651690275 -0.0006515761811574144
0.0004739400232210948 -0.0001457620931781743 -0.0006967945307139203
0.0007082255455298658 -0.00014173378429356922 -0.0007409720486949677
0.0008836440760600286 -0.00013710348443514547 -0.0007841087351005423
0.0010175168155157888 -0.00013268271253495475 -0.0008262045899306425
0.001127577707254967 -0.00012921474184819008 -0.0008672596131852773
0.0012277625198140328 -0.0001268853107878381 -0.0009072738048644361
0.0013263855895434818 -0.0001252310592379569 -0.0009462471649681299
0.0014271324949937342 -0.0001235694614668742 -0.0009841796934963536
0.0015306083418583358 -0.00012144996314170762 -0.001021071390449111
0.0016355657532635395 -0.00011886233737969847 -0.0010569222558263966
0.0017398364473795195 -0.00011608245784200349 -0.0010917322896282122
0.0018410131526058295 -0.00011342943309262876 -0.001125501491854558
0.0019369237898966799 -0.00011113779373255154 -0.0011582298625054323
0.0020259353317291814 -0.00010933853706331192 -0.0011899174015808439
0.0021071205190511277 -0.00010806630715287635 -0.0012205641090807795
0.002180316672546979 -0.00010727108736367238 -0.0012501699850052434
0.002246102151832601 -0.00010683273610765085 -0.0012787350293542454
0.0023056987632523703 -0.00010657903535590291 -0.0013062592421277778
0.0023607022647827614 -0.00010632187484972148 -0.0013327426233258343
0.002412693809290776 -0.00010590583733951222 -0.0013581851729484204
0.002462965813978083 -0.00010523910643360969 -0.001382586890995542
0.002512380634354936 -0.00010430518719423126 -0.0014059477774671907
0.0025613283706516212 -0.00010316072035418221 -0.0014282678323633696
0.0026097549007438243 -0.0001019238833448233 -0.0014495470556840867
0.002657236136998393 -0.00010075694652600716 -0.001469785447429321
0.002703078927872168 -9.983431656208859e-5 -0.0014889830075990999
0.0027464329900004714 -9.926563503865733e-5 -0.001507139736193403
0.002786401784275997 -9.903203894170711e-5 -0.0015242556332122324
0.0028221433614242764 -9.897988221761925e-5 -0.0015403306986555977
0.0028529549202113143 -9.885337838009945e-5 -0.0015553649325234923
0.0028783371660533194 -9.833825682845361e-5 -0.00156935833481592
0.0028980365508205273 -9.704782420652538e-5 -0.0015823109055328726
0.002912065137417993 -9.450516183210085e-5 -0.0015942226446743549
0.0029206991866682092 -9.022442139752839e-5 -0.0016050935522403638
0.002924458630495155 -8.384027273795315e-5 -0.0016149236282309216
0.002924070395798873 -7.522721212785436e-5 -0.0016237128726459926
0.002920419099095677 -6.457480497569467e-5 -0.001631461285485602
0.002914488964363444 -5.240427253575963e-5 -0.0016381688667497314
0.0029073009469562645 -3.9526314795707365e-5 -0.0016438356164384042
0.008108362471616727 0.00011946329923267704 -8.547945205479663e-5
0.011553668218636785 0.0002214830689775105 -0.00014214694894147174
0.013939669461130982 0.00028397146976832867 -0.0001977736142526783
0.01522937481955013 0.00032113715179511596 -0.0002523594479884136
0.01566525885566496 0.0003404014698894314 -0.0003059044501486839
0.01559391912922527 0.00034946181258399333 -0.0003584086207334871
0.015346845607040695 0.00035641486435732806 -0.00040987195974281264
0.015101874093430695 0.0003605961674683277 -0.0004602944671766707
0.014862026584832242 0.00035897239998966123 -0.00050967614303506
0.014573437775420549 0.0003564271331816358 -0.0005580169873179859
0.014199006200252615 0.00035252229088709026 -0.0006053170000254355
0.013724365381036833 0.00034612895060732714 -0.0006515761811574144
0.013153620789474879 0.0003388590045162733 -0.0006967945307139228
0.01250534572245096 0.0003322509232315076 -0.0007409720486949646
0.011807759307536882 0.0003264164883807976 -0.0007841087351005368
0.011093286365047583 0.0003207056213238716 -0.0008262045899306434
0.010393740257911057 0.00031445652087568347 -0.0008672596131852727
0.009735935550246797 0.0003075145998694399 -0.0009072738048644396
0.009138077920677523 0.00030034859138065493 -0.0009462471649681321
0.008609036340576484 0.0002936311779479639 -0.000984179693496355
0.008149766420503367 0.000287788372515049 -0.0010210713904491109
0.00775557455560443 0.000282788922535001 -0.0010569222558263966
0.00741847610215401 0.0002782972900156257 -0.0010917322896282092
0.007129131854184952 0.00027391770707903816 -0.001125501491854556
0.006878194500386407 0.00026932535125367475 -0.0011582298625054325
0.006657182150182173 0.0002642898133271397 -0.0011899174015808434
0.006458985770179959 0.0002586728560119874 -0.0012205641090807767
0.006278064110902578 0.0002524216909463459 -0.0012501699850052468
0.006110422326869312 0.00024555908388613194 -0.0012787350293542487
0.005953474863152743 0.00023816933706355205 -0.0013062592421277666
0.005805707912944256 0.0002303654871341852 -0.0013327426233258348
0.005666205509444801 0.000222243439247552 -0.0013581851729484197
0.0055342952714404325 0.00021385309542344545 -0.0013825868909955435
0.005409335513527416 0.00020518801590771213 -0.0014059477774671894
0.00529060883443783 0.0001961883735081835 -0.0014282678323633772
0.005177292279709549 0.00018675275077965426 -0.0014495470556840848
0.005068479326311552 0.0001767552571429969 -0.0014697854474293316
0.004963233484525266 0.00016607668207961412 -0.0014889830075991007
0.004860657316914595 0.00015468016686245433 -0.0015071397361934027
0.004759964966983503 0.0001426733397043816 -0.0015242556332122317
0.004660549230250332 0.0001303126686427035 -0.0015403306986555923
0.004562036450887148 0.00011796862755416237 -0.0015553649325234927
0.0044643249077512435 0.00010607963838242301 -0.0015693583348159166
0.004367604413995979 9.516345377335296e-5 -0.0015823109055328707
0.004272356566208669 8.583230386502559e-5 -0.0015942226446743616
0.004179336467604934 7.870889853686012e-5 -0.0016050935522403762
0.004089537839770318 7.429428304708317e-5 -0.001614923628230918
0.004004144252868402 7.284588805665538e-5 -0.0016237128726459909
0.0039244697690497855 7.429974690773773e-5 -0.0016314612854856033
0.003851892631895805 7.825151412509148e-5 -0.0016381688667497342
0.0037877857699997993 8.399643303100004e-5 -0.0016438356164383962
0.007743320934564472 9.882843504780407e-5 -0.00011381320049813531
0.009750835451407498 0.0001570612127862675 -0.00016996028159707845
0.010979048577238745 0.00019121062845453717 -0.00022506653112054897
0.0114788998714935 0.00020952407278975789 -0.00027913194906855146
0.011482843576133907 0.00021782868275670907 -0.00033215653544108585
0.011277099360266074 0.0002228236133017188 -0.0003841402902381478
0.011076601566431832 0.00022738248546741105 -0.0004350832134597422
0.01094405481325322 0.00022905187075255478 -0.00048498530510586484
0.010834475689590502 0.0002283159815814681 -0.0005338465651765238
0.010687834577462921 0.0002270697863141762 -0.0005816669936717042
0.01046739278346357 0.0002242845176617377 -0.0006284465905914208
0.010159721621587294 0.00022002180087794527 -0.0006741853559356671
0.009769883138066041 0.00021572923822145383 -0.0007188832897044424
0.009316398088944172 0.00021214562076351758 -0.0007625403918977514
0.008825537238666158 0.0002089475165179839 -0.0008051566625155835
0.008325771798955817 0.00020544862152694154 -0.0008467321015579572
0.00784304595644281 0.00020122666369992026 -0.0008872667090248516
0.007397023565266321 0.00019643415046555958 -0.0009267604849162866
0.006999357608537413 0.00019164234841012064 -0.0009652134292322455
0.006654268640011452 0.00018740490334754765 -0.0010026255419727337
0.0063602746279306545 0.00018392744807858814 -0.001038996823137755
0.006112194271739801 0.00018103923030376412 -0.0010743272727273085
0.0059029591836252705 0.00017839163754366003 -0.0011086168907413867
0.00572498950077706 0.0001756452435216241 -0.0011418656771799917
0.005571123634166452 0.00017254614536832722 -0.0011740736320431401
0.00543519495148333 0.0001689353954751511 -0.0012052407553308048
0.005312323354355717 0.00016474328079481241 -0.0012353670470430236
0.005198984767211905 0.0001599798126282572 -0.0012644525071797395
0.005092936560643897 0.0001547216864231913 -0.001292497135741007
0.004992993669540761 0.00014908794529843721 -0.0013195009327267944
0.004898642042655092 0.00014319988336949165 -0.0013454638981371264
0.004809645245740569 0.00013714308252997222 -0.0013703860319719857
0.0047257798504045665 0.00013094738004569513 -0.0013942673342313648
0.0046466927561127904 0.00012458290758739362 -0.0014171078049152832
0.0045718483267296935 0.00011796734614557896 -0.0014389074440237255
0.004500538231975695 0.00011098039923713176 -0.0014596662515567013
0.004431931687172632 0.00010348806932247187 -0.0014793842275142135