# vtk DataFile Version 4.0
 
ASCII
DATASET UNSTRUCTURED_GRID
POINTS 51 float
0.0034458014422159783 -0.003797836921183289 -0.006240000000000175
0.0036900627846638773 -0.0026934782865667335 -0.010376727272727542
0.0038282745642455383 -0.0023100731699398185 -0.014437473840445638
0.0037079283378247023 -0.0022855303152364056 -0.018422239703154455
0.0033762035407059886 -0.0025275645687943475 -0.022331024860853994
0.0030025019463168225 -0.0027835116248869055 -0.026163829313544256
0.002778564742747585 -0.0026777405823944517 -0.029920653061225235
0.0027836052549005132 -0.002412341429424821 -0.033601496103896934
0.0029529222680929356 -0.0023199500298234565 -0.03720635844155936
0.0031830031489444863 -0.002125981880503713 -0.04073524007421251
0.0033991163644867227 -0.0019240676279226774 -0.04418814100185638
0.0035584971737158675 -0.0018423948944209605 -0.047565061224490966
0.0036438602147845357 -0.0017962977690836063 -0.05086600074211628
0.0036575055897601363 -0.0016963453410987663 -0.05409095955473232
0.003614672883929243 -0.0015493148598759142 -0.05723993766233907
0.0035364592028987365 -0.0014115009221291463 -0.06031293506493654
0.003444118344918985 -0.0013356756102082877 -0.06330995176252474
0.003354805777422227 -0.0013348293180173916 -0.06623098775510365
0.003279308672326989 -0.0013750387005819636 -0.0690760430426733
0.003222608456389419 -0.0014066590177616509 -0.07184511762523367
0.0031853978615195965 -0.0013972476836097503 -0.07453821150278477
0.0031655679538487606 -0.0013468151352753778 -0.07715532467532658
0.003159496361073144 -0.0012765890240655753 -0.07969645714285911
0.003163042828000607 -0.0012112633076298823 -0.08216160890538236
0.003172241467519109 -0.0011696065464782241 -0.08455077996289635
0.0031837470363424306 -0.0011629958109964464 -0.08686397031540105
0.0031950868318333385 -0.0011958506944021686 -0.08910117996289647
0.0032047535321358773 -0.0012663961733909124 -0.09126240890538262
0.0032121821955917763 -0.0013676390209731895 -0.09334765714285947
0.0032176427882274626 -0.001488611784327866 -0.09535692467532707
0.0032219536768231328 -0.0016169525078244943 -0.09729021150278537
0.003226071734329285 -0.0017424018280714122 -0.09914751762523441
0.003230798178343667 -0.0018590220857637358 -0.10092884304267416
0.0032366193541480542 -0.001966027708569278 -0.10263418775510463
0.003243648486598172 -0.00206761162286861 -0.10426355176252583
0.003251639245485254 -0.0021720949114014468 -0.10581693506493775
0.003260046934326686 -0.0022906593794404574 -0.1072943376623404
0.003268117567035445 -0.0024350293838222878 -0.10869575955473376
0.0032749890717290045 -0.002611880473127882 -0.11002120074211783
0.0032797925799528723 -0.0028182156824548086 -0.11127066122449264
0.003281744828630787 -0.0030409423486855536 -0.11244414100185816
0.0032802253028802715 -0.0032592950134476954 -0.11354164007421443
0.003274834101477803 -0.0034480661608805763 -0.11456315844156138
0.0032654285166143935 -0.0035766353439442397 -0.11550869610389908
0.0032521379946156646 -0.0036077180647719085 -0.1163782530612275
0.003235358506902393 -0.0035033496732193997 -0.11717182931354662
0.0032157284328139467 -0.0032343842667947945 -0.11788942486085646
0.003194088860066257 -0.0027892524069684215 -0.11853103970315705
0.003171431766584201 -0.0021795001913545503 -0.11909667384044835
0.0031488398812465363 -0.0014410437885505319 -0.11958632727273036
0.0031274221527171466 -0.0006311308322512891 -0.12000000000000308

CELLS 1 52
51 0 1 2 3 4 5 6 7 8 9 10 11 12 13 14 15 16 17 18 19 20 21 22 23 24 25 26 27 28 29 30 31 32 33 34 35 36 37 38 39 40 41 42 43 44 45 46 47 48 49 50

CELL_TYPES 1
7

POINT_DATA 51

VECTORS centroid-point-cyl-mean float
0.0073048727079878025 -5.2724900168819996e-20 -0.0034458014422159822
0.010720601390443266 -5.866573399064999e-20 -0.0036900627846638816
0.014621117910201934 -2.376333528735e-20 -0.0038282745642455366
0.018563473934108992 4.9011879030169994e-20 -0.0037079283378247045
0.022473612392882095 -1.8119543156606998e-19 -0.0033762035407059947
0.026311478508707086 -1.6634334701147e-19 -0.0030025019463168216
0.030040235921790132 -1.0693500879309e-19 -0.002778564742747589
0.033687979036925324 -1.396095948132e-19 -0.0027836052549005123
0.03727861688183553 1.0099417497125e-19 -0.002952922268092934
0.04079068009803165 3.3862752784479e-19 -0.0031830031489444863
0.04423001064251241 -3.7724294768673997e-19 -0.0033991163644867257
0.04760072970277417 -2.970416910919e-20 -0.003558497173715868
0.050897708368571784 -3.2674586020109995e-20 -0.0036438602147845296
0.054117552541370115 5.94083382184e-21 -0.0036575055897601354
0.057260901495902856 3.2971627711203e-19 -0.0036146728839292473
0.06032944945049985 5.88142548362e-19 -0.00353645920289874
0.06332403983882351 -2.673375219827e-20 -0.0034441183449189804
0.0662444375651641 -4.544737873706399e-19 -0.003354805777422227
0.0690897275567168 -1.5149126245687998e-19 -0.0032793086723269856
0.07185888682811553 -2.376333528735e-20 -0.0032226084563894155
0.07455130632740928 -2.0495876685341999e-19 -0.0031853978615195917
0.07716707871083153 8.020125659482e-20 -0.0031655679538487584
0.07970668077808743 4.2179920135051996e-19 -0.003159496361073148
0.08217053691391715 -5.3467504396549995e-20 -0.0031630428280006104
0.08455886926755617 -1.6931376392239e-19 -0.003172241467519105
0.08687175546868643 3.3268669402294996e-19 -0.0031837470363424362
0.08910920451706313 1.544616793678e-19 -0.0031950868318333385
0.09127119500960454 3.4159794475570998e-19 -0.003204753532135874
0.09335767526321836 -2.7030793889365e-19 -0.003212182195591774
0.09536854328645483 -1.7822501465514998e-19 -0.0032176427882274687
0.09730364736056532 4.8714837339075e-19 -0.0032219536768231306
0.09916282678189764 7.752788137499099e-19 -0.003226071734329287
0.10094596238110824 9.2082924238495e-19 -0.0032307981783436727
0.10265301632733885 -5.049708748562599e-19 -0.0032366193541480486
0.1042840507650134 -1.2475751025861e-19 -0.003243648486598168
0.10583922591762185 3.564500293103e-20 -0.00325163924548525
0.10731878686787759 5.7032004689648e-19 -0.0032600469343266876
0.10872303119983605 -6.7725505568958e-19 -0.0032681175670354404
0.11005219912543006 7.9607173212634e-19 -0.00327498907172901
0.11130634478307436 -3.6833169695398e-19 -0.0032797925799528684
0.11248525314908518 6.7131422186774e-19 -0.003281744828630784
0.1135884106532314 -7.4854506155164e-19 -0.0032802253028802737
0.11461503580401701 9.0300674091943e-19 -0.003274834101477803
0.11556405667856429 1.1287584261493e-19 -0.003265428516614398
0.11643415914248682 6.0596504982751e-19 -0.003252137994615661
0.11722419137539732 -3.9209503224132996e-19 -0.0032353585069023975
0.11793378538658382 -4.1585836752869e-19 -0.0032157284328139506
0.1185638532694562 -6.237875512930299e-19 -0.0031940888600662538
0.11911661488198119 -8.7924340563208e-19 -0.003171431766584195
0.11959500941837456 -1.1287584261493e-19 -0.003148839881246535
0.12000165968072339 7.1290005862060995e-19 -0.0031274221527171427

VECTORS centroid-point-mean float
0.0034458014422159822 -5.202516330387793e-5 -8.547945205479715e-5
0.0036900627846638816 -3.689696282967894e-5 -0.00014214694894147423
0.0038282745642455366 -3.164483794437743e-5 -0.0001977736142526799
0.0037079283378247045 -3.130863445528938e-5 -0.00025235944798841846
0.0033762035407059947 -3.46241721752613e-5 -0.0003059044501486851
0.0030025019463168216 -3.8130296231323755e-5 -0.0003584086207334841
0.002778564742747589 -3.6681377841016555e-5 -0.00040987195974281085
0.0027836052549005123 -3.3045773005813655e-5 -0.00046029446717667146
0.002952922268092934 -3.1780137394832196e-5 -0.0005096761430350616
0.0031830031489444863 -2.912303945894494e-5 -0.000558016987317982
0.0033991163644867257 -2.635709079345728e-5 -0.0006053170000254291
0.003558497173715868 -2.523828622493143e-5 -0.0006515761811574134
0.0036438602147845296 -2.4606818754561888e-5 -0.0006967945307139273
0.0036575055897601354 -2.323760741230748e-5 -0.0007409720486949646
0.0036146728839292473 -2.1223491231176538e-5 -0.0007841087351005408
0.00353645920289874 -1.9335629070260757e-5 -0.0008262045899306402
0.0034441183449189804 -1.829692616722459e-5 -0.0008672596131852718
0.003354805777422227 -1.8285333123517664e-5 -0.0009072738048644343
0.0032793086723269856 -1.883614658330958e-5 -0.0009462471649681288
0.0032226084563894155 -1.9269301613151448e-5 -0.0009841796934963543
0.0031853978615195917 -1.91403792275186e-5 -0.0010210713904491135
0.0031655679538487584 -1.844952240102446e-5 -0.0010569222558263944
0.003159496361073148 -1.7487520877602125e-5 -0.0010917322896282125
0.0031630428280006104 -1.6592648049711926e-5 -0.0011255014918545585
0.003172241467519105 -1.602200748600049e-5 -0.001158229862505432
0.0031837470363424362 -1.593144946568577e-5 -0.0011899174015808436
0.0031950868318333385 -1.6381516361647713e-5 -0.0012205641090807756
0.003204753532135874 -1.7347892786173032e-5 -0.001250169985005248
0.003212182195591774 -1.873478110920275e-5 -0.0012787350293542378
0.0032176427882274687 -2.0391942251068902e-5 -0.0013062592421277722
0.0032219536768231306 -2.2150034353747792e-5 -0.0013327426233258324
0.003226071734329287 -2.386851819273979e-5 -0.0013581851729484202
0.0032307981783436727 -2.5466055969347412e-5 -0.0013825868909955426
0.0032366193541480486 -2.693188641874629e-5 -0.001405947777467191
0.003243648486598168 -2.832344688857755e-5 -0.0014282678323633698
0.00325163924548525 -2.9754724813705034e-5 -0.001449547055684082
0.0032600469343266876 -3.137889560874929e-5 -0.001469785447429324
0.0032681175670354404 -3.3356566901646276e-5 -0.0014889830075990923
0.00327498907172901 -3.577918456336923e-5 -0.0015071397361934053
0.0032797925799528684 -3.8605694280174625e-5 -0.001524255633212236
0.003281744828630784 -4.16567445025376e-5 -0.0015403306986555916
0.0032802253028802737 -4.464787689653213e-5 -0.0015553649325234923
0.003274834101477803 -4.723378302572646e-5 -0.0015693583348159149
0.003265428516614398 -4.8995004711553475e-5 -0.0015823109055328774
0.003252137994615661 -4.94207954078305e-5 -0.001594222644674347
0.0032353585069023975 -4.799109141397101e-5 -0.001605093552240373
0.0032157284328139506 -4.430663379169236e-5 -0.0016149236282309218
0.0031940888600662538 -3.8208937081754896e-5 -0.0016237128726459894
0.003171431766584195 -2.985616700484566e-5 -0.0016314612854855994
0.003148839881246535 -1.97403258705385e-5 -0.0016381688667497364
0.0031274221527171427 -8.645627839042572e-6 -0.0016438356164384035

VECTORS centroid-point-cyl-variance float
0.0 0.0 0.0
0.0 0.0 0.0
0.0 0.0 0.0
0.0 0.0 0.0
0.0 0.0 0.0
0.0 0.0 0.0
0.0 0.0 0.0
0.0 0.0 0.0
0.0 0.0 0.0
0.0 0.0 0.0
0.0 0.0 0.0
0.0 0.0 0.0
0.0 0.0 0.0
0.0 0.0 0.0
0.0 0.0 0.0
0.0 0.0 0.0
0.0 0.0 0.0
0.0 0.0 0.0
0.0 0.0 0.0
0.0 0.0 0.0
0.0 0.0 0.0
0.0 0.0 0.0
0.0 0.0 0.0
0.0 0.0 0.0
9.999999999999999e-33 0.0 0.0
9.999999999999999e-33 0.0 0.0
1.9999999999999998e-32 0.0 0.0
1.9999999999999998e-32 0.0 0.0
0.0 0.0 0.0
1.9999999999999998e-32 0.0 0.0
9.999999999999999e-33 0.0 0.0
0.0 0.0 0.0
9.999999999999999e-33 0.0 0.0
1.9999999999999998e-32 0.0 0.0
9.999999999999999e-33 0.0 0.0
9.999999999999999e-33 0.0 0.0
9.999999999999999e-33 0.0 0.0
3.0e-32 0.0 0.0
9.999999999999999e-33 0.0 0.0
0.0 0.0 0.0
0.0 0.0 0.0
0.0 0.0 0.0
0.0 0.0 0.0
1.9999999999999998e-32 0.0 0.0
1.9999999999999998e-32 0.0 0.0
1.9999999999999998e-32 0.0 0.0
0.0 0.0 0.0
9.999999999999999e-33 0.0 0.0
9.999999999999999e-33 0.0 0.0
9.999999999999999e-33 0.0 0.0
0.0 0.0 0.0

VECTORS centroid-point-cart-variance float
0.0 2.650997167493782e-5 2.6841180250626893e-5
0.0 5.677646622372392e-5 5.8133260808090565e-5
0.0 0.0001054964183307448 0.00010824055481501974
0.0 0.00017001156731606982 0.00017452633166469434
0.0 0.0002491586056342018 0.0002558098719853818
0.0 0.00034150989381031156 0.0003506540968449393
0.0 0.000445123834848461 0.0004571225988414837
0.0 0.0005597454412439497 0.0005749215273287429
0.0 0.0006854018958661148 0.0007040326010086457
0.0 0.0008206044228337059 0.0008429629289166892
0.0 0.0009647976659607541 0.0009911290721092512
0.0 0.0011174412161174456 0.001147963063628172
0.0 0.001277588278119183 0.001312502310939442
0.0 0.0014443339714925408 0.0014838259420120663
0.0 0.0016169802430015126 0.0016612153201769383
0.0 0.0017949190958713702 0.0018440403872380762
0.0 0.001977525813217788 0.002031655734276954
0.0 0.002164129803578177 0.0022233722246363494
0.0 0.0023540263173973445 0.002418468397966376
0.0 0.0025465087365286036 0.0026162218986722293
0.0 0.0027409072255023953 0.002815947096482316
0.0 0.0029366175121425257 0.003017023099581396
0.0 0.0031330847388892744 0.0032188780365650627
0.0 0.0033297718353795273 0.003420958272417748
0.0 0.0035261456797959596 0.0036227149388925934
0.0 0.0037216794844746976 0.0038236062565028986
0.0 0.003915857840231931 0.004023102444333374
0.0 0.00410817944075736 0.00422068837178308
0.0 0.004298156765944728 0.004415863250340479
0.0 0.004485313854222665 0.004608138465318816
0.0 0.004669185906136337 0.004797037190008877
0.0 0.004849322988070403 0.004982097990636046
0.0 0.005025295235327215 0.005162879890689732
0.0 0.005196697475558213 0.0053389668710632455
0.0 0.005363151962171124 0.005509970530570184
0.0 0.005524308987787774 0.005675530683043316
0.0 0.005679846133898308 0.0058353146269980545
0.0 0.005829465186602465 0.005989014143620625
0.0 0.005972880049767269 0.006136333732241553
0.0 0.006109801637579872 0.006276975905753752
0.0 0.006239927109467204 0.006410630712600991
0.0 0.0063629349415556 0.006536970939665292
0.0 0.00647848709397069 0.006655654221772092
0.0 0.0065862254813609635 0.006766319606333232
0.0 0.006685776990153229 0.006868592436808935
0.0 0.006776801409582536 0.006962131005576904
0.0 0.006859067348203057 0.007046700446002932
0.0 0.006932515290825509 0.0071222341078599856
0.0 0.006997264808540863 0.007188840575084624
0.0 0.0070535456734334995 0.0072467366174311255
0.0 0.007101571679592035 0.007296124376255361

CELL_DATA 1

VECTORS centroid-cell-cart-variance float
0.0 7.9367536168590185 8.15388659523795

VECTORS centroid-cell-cyl-mean float
4.011690445080703 -7.98448065655078e-18 -0.16725989674070438

VECTORS centroid-cell-mean float
0.16725989674070438 -0.0014627446811669646 -0.054935193026153524

VECTORS centroid-cell-cyl-variance float
5.5699999999999996e-30 9.999999999999999e-33 0.0