# vtk DataFile Version 4.0
[MyVLM domain - lattices] 
ASCII
DATASET UNSTRUCTURED_GRID
POINTS 152 float
0.0018916144324157278 -0.006766065024163835 -0.007529301875155227
0.0010688609733395774 -0.007042388542775146 -0.011778568125731633
0.00045780959861706216 -0.007331257357713773 -0.015952893620675264
-0.00013255382275044122 -0.007497708963046176 -0.02002848082880601
-0.0007201482309470062 -0.00759840863490193 -0.024015321367174814
-0.0011946371146526612 -0.007486046249382698 -0.02788744048640689
-0.0014108622120167862 -0.006861415664335617 -0.031592080070846996
-0.0013224843579428829 -0.005973953759602042 -0.03517322257239489
-0.0010167791708201568 -0.005187747557557432 -0.038695066356421184
-0.0006138083932142036 -0.004259274679968131 -0.042114671857237
-0.00020084691410191335 -0.0033009814695324404 -0.04545186639894202
0.0001698744379422134 -0.002454135035700462 -0.048731559184419
0.0004739400232210948 -0.001646189346299203 -0.05194095839085249
0.0007082255455298663 -0.0007965821084988099 -0.05506585871238888
0.0008836440760600275 8.310893095219479e-5 -0.05810830161815571
0.001017516815515788 0.0009345428921260167 -0.061078574179362535
0.0011275777072549662 0.001704285142726286 -0.06398609836338745
0.0012277625198140337 0.002378982768826804 -0.06683322864922671
0.00132638558954348 0.0029919471767529977 -0.0696140913371798
0.0014271324949937316 0.0035922458006550804 -0.07232003451473192
0.0015306083418583354 0.0042122694267452 -0.07494534681234749
0.0016355657532635378 0.004852753275504884 -0.07748989859081885
0.0017398364473795213 0.0054938645229466905 -0.07995718691211863
0.0018410131526058282 0.0061126621461559906 -0.08235125689755173
0.001936923789896676 0.006692285513678911 -0.08467508153135525
0.0020259353317291845 0.007223317102967543 -0.08693032137684581
0.0021071205190511294 0.007703266318510435 -0.08911741559321013
0.002180316672546981 0.008135728904699107 -0.09123573015369622
0.0022461021518325993 0.008529341956348614 -0.09328374210545327
0.0023056987632523672 0.008896486393916677 -0.0952592683581586
0.0023607022647827588 0.009250685645611963 -0.0971599243665473
0.0024126938092907785 0.009603112807633986 -0.09898374001230138
0.0024629658139780817 0.009960368649070846 -0.10072955140173717
0.0025123806343549317 0.01032363900693614 -0.10239714943979444
0.0025613283706516186 0.010688851924231062 -0.10398725212235639
0.0026097549007438213 0.011047511511264338 -0.10550135750400068
0.0026572361369983943 0.011387951995113738 -0.10694152257524438
0.002703078927872171 0.011697635112209597 -0.10830995817024597
0.0027464329900004744 0.011968678623051806 -0.10960805414049776
0.0027864017842759935 0.01220243860793947 -0.11083557137245506
0.0028221433614242725 0.01240996083008589 -0.11199056220004079
0.0028529549202113143 0.012609634027069447 -0.11306978419267873
0.002878337166053322 0.012824051415950789 -0.11406925355662008
0.0028980365508205295 0.0130810127556419 -0.11498406844431147
0.0029120651374179955 0.013414804190892209 -0.1158081832833691
0.002920699186668212 0.013860353825853143 -0.11653543930664609
0.0029244586304951574 0.014443925598979177 -0.11716120547317324
0.002924070395798875 0.015174542094324747 -0.11768389085794602
0.0029204190990956736 0.01603857527156571 -0.11810589845216782
0.0029144889643634465 0.016998554031245682 -0.11843383542166952
0.002907300946956263 0.017996196368137766 -0.11867797845646251
0.007494200061846557 0.008344563551951047 -0.004864890361721743
0.009712470588471309 0.013857104234887922 -0.008093423665907802
0.011180147846755925 0.017342111573151575 -0.011602312973189574
0.011846013618908484 0.01953406139685647 -0.015262050378039632
0.011882888770235118 0.02078727679527315 -0.019010159159931598
0.011576838316317409 0.021536829090259828 -0.022769924506289375
0.011210354177725876 0.022288409601342225 -0.026452179393570505
0.010928204811830277 0.022943439957480886 -0.030074305848303534
0.01071303037791058 0.023248795785573872 -0.03368093652694126
0.01049607817230476 0.023530746451969307 -0.037214541337217855
0.010228980021500847 0.023739135843800743 -0.04068396415507912
0.009888773033192747 0.023779010586494242 -0.044105947822371754
0.009472892771510347 0.023756573648764344 -0.04746176589028006
0.008994714738996129 0.023776119525602695 -0.05073302842539764
0.008478044976503459 0.023842178475687627 -0.053918936620889917
0.007950859752197696 0.023906845665011986 -0.05702793739149871
0.0074400988175856424 0.023923154158643496 -0.06006831227505376
0.006967560749058358 0.023881725109456284 -0.0630417150153513
0.0065469730718405025 0.023818536094719296 -0.0659418017948183
0.006183908691794552 0.023784436110698248 -0.06875960656347116
0.005877755429283518 0.0238125629588912 -0.07148928623282441
0.00562363523066521 0.023903244492698743 -0.0741307829934778
0.005414316393708631 0.02403501491889495 -0.07668788184393939
0.005241778218494792 0.02418212251608973 -0.07916512350748993
0.0050982599774616385 0.0243238851424808 -0.081566154803748
0.004976901280254986 0.024446284170158563 -0.08389344759504658
0.004872091030370304 0.02454170232208663 -0.08614834501284671
0.004779587643785211 0.024608338807300175 -0.0883311645851821
0.0046964814622017445 0.024649405503362472 -0.09044133997137963
0.004621058725274115 0.02467204411939512 -0.09247761189543277
0.004552477133912937 0.02468491075016998 -0.09443845405428569
0.0044903135402129465 0.024694838761821335 -0.09632266154111985
0.004434231809853792 0.02470474089284808 -0.09812972076155013
0.004383790943334782 0.02471286002882083 -0.09985994154225865
0.004338358530095737 0.02471299054252424 -0.10151441810275567
0.00429709957894373 0.024695348876856177 -0.10309487554812562
0.0042590158951992425 0.024647838701054484 -0.10460344678784944
0.004223015767743296 0.024558335832615737 -0.10604226964242149
0.004187997814011097 0.024420182902919835 -0.10741251798555004
0.004152936685190939 0.024236718739579444 -0.10871360309184304
0.0041169614747571005 0.024021660189053863 -0.10994310631117948
0.0040794203018051315 0.02379667178007282 -0.11109720760261996
0.004039926929358357 0.023588132105927105 -0.1121712557084542
0.003998387311767055 0.023428031882951377 -0.11315960980226018
0.003955005654486718 0.023355143513950224 -0.1140554332633166
0.003910270939549736 0.023409062669671108 -0.1148517443065514
0.003864925945713078 0.02362078695712026 -0.11554307721751197
0.003819921597618187 0.02400402471127993 -0.11612701484688037
0.003776360036804952 0.024549675172783905 -0.11660516190407783
0.003735430142094892 0.025224531103177246 -0.11698337372119871
0.0036983393603558733 0.02597421355887964 -0.1172712387731787
0.006822560919588613 0.006599568724197241 -0.007272851510471938
0.008025565734704794 0.009903000190453695 -0.01085233395796238
0.00867546752160748 0.011974944073658022 -0.014571808062896112
0.00879175063921667 0.013233487122305095 -0.018357553851236816
0.00855804948925724 0.013985982846539286 -0.022155376606530577
0.008219509769432549 0.014641031770135983 -0.02589322903210419
0.0079602912998386 0.015357522406566461 -0.02954309479610801
0.007823055255057443 0.0159268757390006 -0.033141752006818806
0.007749592260826457 0.016361450559387997 -0.03668702147576695
0.00767006490926259 0.0167811738422262 -0.040157756841633745
0.007540285835990134 0.017099915348206506 -0.0435691451894642
0.007341101484409075 0.017313303540472013 -0.04692195733915337
0.007073123512533797 0.017519413508537886 -0.050198900006284304
0.006751268596011082 0.017767677603290545 -0.05339125693367591
0.006398484384709911 0.018033090530647132 -0.05650343722933551
0.006039746279015096 0.018266103438227342 -0.05954417769280093
0.005697289865875125 0.018437238214481552 -0.06251867611047866
0.005387218696506762 0.01855896419476332 -0.06542473380211442
0.005118270421930297 0.01867413869920759 -0.06825479386584751
0.004892841650010785 0.01882443905452108 -0.07100150746449577
0.004708793259371007 0.01902655563212749 -0.07366193163525914
0.004561157134220573 0.01927017450415408 -0.07623788500189864
0.004443641679574452 0.019532242371757092 -0.0787334324829948
0.004349756441296475 0.019790371329443314 -0.0811525216703276
0.004273542861846967 0.02002826381932057 -0.08349802626307311
0.0042100040978320236 0.020236317862276698 -0.08577163934921699
0.004155309151758082 0.020411139826421246 -0.08797395931762411
0.004106828267792555 0.02055478797412946 -0.09010462324110434
0.004063052684689069 0.02067377215231726 -0.09216248325800615
0.0040233760756995356 0.020777254581027995 -0.09414592382173267
0.003987721012056399 0.02087413087365249 -0.09605337639563317
0.003956161959183635 0.020970277552589137 -0.09788380479025607
0.003928676838487342 0.021067101302626717 -0.09963696096911975
0.003905019678162263 0.021161255330650303 -0.10131343506214924
0.0038846821998142302 0.021245172711704584 -0.10291456132237513
0.0038669171825213918 0.021308128280013758 -0.10444223088589628
0.003850801256712272 0.021338013838541753 -0.10589857875453791
0.0038353190828919787 0.021325233742733516 -0.1072852968993323
0.0038194547839853214 0.021267727769811142 -0.10860274859314152
0.003802279953193048 0.021173442027990663 -0.10984953272269542
0.003783030451415285 0.021059323845566927 -0.11102266101676472
0.003761166722469388 0.020948512137627502 -0.11211805346031518
0.0037364145550312605 0.020869194517278516 -0.11313073981663435
0.0037087850733749797 0.020855667892154865 -0.11405467261555136
0.003678574263274446 0.02094597207095117 -0.11488314441245238
0.0036463435591189766 0.021174228538150805 -0.11561013866900119
0.0036128839570359786 0.021561612837313063 -0.11623192156553704
0.003579166799770495 0.022109277127260244 -0.11674828994537356
0.0035462848250198318 0.022794968516336854 -0.11716316759370839
0.0035153873023340016 0.023573873048194263 -0.11748445642015803

CELLS 100 350
4 0 51 52 1
4 1 52 53 2
4 2 53 54 3
4 3 54 55 4
4 4 55 56 5
4 5 56 57 6
4 6 57 58 7
4 7 58 59 8
4 8 59 60 9
4 9 60 61 10
4 10 61 62 11
4 11 62 63 12
4 12 63 64 13
4 13 64 65 14
4 14 65 66 15
4 15 66 67 16
4 16 67 68 17
4 17 68 69 18
4 18 69 70 19
4 19 70 71 20
4 20 71 72 21
4 21 72 73 22
4 22 73 74 23
4 23 74 75 24
4 24 75 76 25
4 25 76 77 26
4 26 77 78 27
4 27 78 79 28
4 28 79 80 29
4 29 80 81 30
4 30 81 82 31
4 31 82 83 32
4 32 83 84 33
4 33 84 85 34
4 34 85 86 35
4 35 86 87 36
4 36 87 88 37
4 37 88 89 38
4 38 89 90 39
4 39 90 91 40
4 40 91 92 41
4 41 92 93 42
4 42 93 94 43
4 43 94 95 44
4 44 95 96 45
4 45 96 97 46
4 46 97 98 47
4 47 98 99 48
4 48 99 100 49
4 49 100 101 50
1 102
1 103
1 104
1 105
1 106
1 107
1 108
1 109
1 110
1 111
1 112
1 113
1 114
1 115
1 116
1 117
1 118
1 119
1 120
1 121
1 122
1 123
1 124
1 125
1 126
1 127
1 128
1 129
1 130
1 131
1 132
1 133
1 134
1 135
1 136
1 137
1 138
1 139
1 140
1 141
1 142
1 143
1 144
1 145
1 146
1 147
1 148
1 149
1 150
1 151

CELL_TYPES 100
9
9
9
9
9
9
9
9
9
9
9
9
9
9
9
9
9
9
9
9
9
9
9
9
9
9
9
9
9
9
9
9
9
9
9
9
9
9
9
9
9
9
9
9
9
9
9
9
9
9
1
1
1
1
1
1
1
1
1
1
1
1
1
1
1
1
1
1
1
1
1
1
1
1
1
1
1
1
1
1
1
1
1
1
1
1
1
1
1
1
1
1
1
1
1
1
1
1
1
1

CELL_DATA 100

VECTORS S float
-9.59066189798945e-17 6.33470925153479e-17 1.413784993543042e-16
4.35180893967476e-18 6.03136364503734e-18 -3.508107832405578e-17
1.83032142174e-21 -1.4241329075325e-19 5.3315431982937e-19
1.1411414175139999e-20 -2.2003735068167197e-18 8.116836798641909e-18
2.743744960228e-20 7.585214599829399e-19 -2.7821081144359997e-18
-2.5059534809310997e-19 -9.848550190195549e-18 3.509288960592976e-17
8.545766161948e-20 3.2449757341626697e-18 -1.134141046056881e-17
4.6208192796864e-19 1.4537556492436398e-17 -4.969235577699205e-17
-6.2495050321132e-19 -1.7031644796303778e-17 5.698389908955305e-17
-3.5965801199933e-19 -9.05704628864918e-18 2.967635858298728e-17
-3.2356289250839995e-20 -7.6141725674144e-19 2.4457036054197497e-18
1.89530236574173e-18 4.213931363505604e-17 -1.328491405396961e-16
2.01930337699596e-18 4.2951061525876837e-17 -1.3310089253868098e-16
7.7871554536648e-19 1.592896506271193e-17 -4.859818129640773e-17
9.508622640676e-19 1.906221409093151e-17 -5.733150557964464e-17
4.0191909073808995e-18 7.914085588681095e-17 -2.3495833711901157e-16
9.907988430392399e-19 1.970955046367342e-17 -5.781628255057443e-17
-1.10990674226554e-18 -2.2102070294569257e-17 6.417144168690243e-17
1.7550136979207998e-19 3.5147140516993695e-18 -1.0111639730052869e-17
-8.956503141481699e-19 -1.807631698677654e-17 5.1586159306071385e-17
-1.2011776571908299e-18 -2.4163007481253798e-17 6.84794207849769e-17
3.92307315325082e-18 8.060548219388184e-17 -2.270611347805321e-16
8.1425291411240995e-19 1.750951812844225e-17 -4.906938967842629e-17
2.38179509151849e-18 5.2545416322315475e-17 -1.4674045951393636e-16
2.7083475762742e-19 6.3950555203793495e-18 -1.7822145287581768e-17
-2.0270423557205e-19 -5.0795445119046896e-18 1.415213736201722e-17
-2.44639055900183e-18 -6.495574871351075e-17 1.8124151414738768e-16
2.7592966759946e-19 7.89761827315842e-18 -2.2105044154009358e-17
-5.8317068173073e-19 -1.839205067330431e-17 5.1719992053785365e-17
6.982117509521499e-19 2.4933940973736678e-17 -7.052109949417075e-17
-7.3013437783496e-19 -2.9322759474664937e-17 8.350441311593746e-17
-5.3673142336323e-19 -2.444615678979532e-17 7.015835713040294e-17
-2.0831684381063e-19 -1.084893876043259e-17 3.1397845811616827e-17
-5.1685454070354e-19 -3.18948542336053e-17 9.29901864990019e-17
-1.387792940544e-20 -9.4973856157132e-19 2.7958930445635798e-18
1.2665639178527e-19 9.72983497210193e-18 -2.89028121919563e-17
-3.9056086340874e-19 -3.294811309258584e-17 9.873905279048033e-17
2.0554767611168e-19 1.852100391798865e-17 -5.59766395102446e-17
-4.1738954671479997e-20 -3.9937886083644094e-18 1.216821742114345e-17
-3.073699934912e-20 -3.2344348778497697e-18 9.93057619649103e-18
-1.082300944758e-20 -1.3048169349829398e-18 4.03456070390066e-18
-4.533044598212e-20 -4.6778288264623e-18 1.455756977070853e-17
2.7952487520174e-19 2.2295797699768037e-17 -6.978880476714177e-17
4.0036176331359e-19 2.357788869638058e-17 -7.418331720684675e-17
-3.54004243153e-21 -1.4388787308647999e-19 4.5476038212691e-19
4.9541745693512995e-19 1.5166496880543018e-17 -4.812160126497977e-17
9.504081065789e-19 2.242200762794282e-17 -7.137972221738637e-17
1.3272286929114e-19 2.39008512808874e-18 -7.629838750270869e-18
-4.6621255347814e-19 -5.707856354004119e-18 1.8259373514859378e-17
-6.841576711083799e-19 -4.43276031570431e-18 1.419307783149598e-17
-9.59066189798945e-17 6.33470925153479e-17 1.413784993543042e-16
4.35180893967476e-18 6.03136364503734e-18 -3.508107832405578e-17
1.83032142174e-21 -1.4241329075325e-19 5.3315431982937e-19
1.1411414175139999e-20 -2.2003735068167197e-18 8.116836798641909e-18
2.743744960228e-20 7.585214599829399e-19 -2.7821081144359997e-18
-2.5059534809310997e-19 -9.848550190195549e-18 3.509288960592976e-17
8.545766161948e-20 3.2449757341626697e-18 -1.134141046056881e-17
4.6208192796864e-19 1.4537556492436398e-17 -4.969235577699205e-17
-6.2495050321132e-19 -1.7031644796303778e-17 5.698389908955305e-17
-3.5965801199933e-19 -9.05704628864918e-18 2.967635858298728e-17
-3.2356289250839995e-20 -7.6141725674144e-19 2.4457036054197497e-18
1.89530236574173e-18 4.213931363505604e-17 -1.328491405396961e-16
2.01930337699596e-18 4.2951061525876837e-17 -1.3310089253868098e-16
7.7871554536648e-19 1.592896506271193e-17 -4.859818129640773e-17
9.508622640676e-19 1.906221409093151e-17 -5.733150557964464e-17
4.0191909073808995e-18 7.914085588681095e-17 -2.3495833711901157e-16
9.907988430392399e-19 1.970955046367342e-17 -5.781628255057443e-17
-1.10990674226554e-18 -2.2102070294569257e-17 6.417144168690243e-17
1.7550136979207998e-19 3.5147140516993695e-18 -1.0111639730052869e-17
-8.956503141481699e-19 -1.807631698677654e-17 5.1586159306071385e-17
-1.2011776571908299e-18 -2.4163007481253798e-17 6.84794207849769e-17
3.92307315325082e-18 8.060548219388184e-17 -2.270611347805321e-16
8.1425291411240995e-19 1.750951812844225e-17 -4.906938967842629e-17
2.38179509151849e-18 5.2545416322315475e-17 -1.4674045951393636e-16
2.7083475762742e-19 6.3950555203793495e-18 -1.7822145287581768e-17
-2.0270423557205e-19 -5.0795445119046896e-18 1.415213736201722e-17
-2.44639055900183e-18 -6.495574871351075e-17 1.8124151414738768e-16
2.7592966759946e-19 7.89761827315842e-18 -2.2105044154009358e-17
-5.8317068173073e-19 -1.839205067330431e-17 5.1719992053785365e-17
6.982117509521499e-19 2.4933940973736678e-17 -7.052109949417075e-17
-7.3013437783496e-19 -2.9322759474664937e-17 8.350441311593746e-17
-5.3673142336323e-19 -2.444615678979532e-17 7.015835713040294e-17
-2.0831684381063e-19 -1.084893876043259e-17 3.1397845811616827e-17
-5.1685454070354e-19 -3.18948542336053e-17 9.29901864990019e-17
-1.387792940544e-20 -9.4973856157132e-19 2.7958930445635798e-18
1.2665639178527e-19 9.72983497210193e-18 -2.89028121919563e-17
-3.9056086340874e-19 -3.294811309258584e-17 9.873905279048033e-17
2.0554767611168e-19 1.852100391798865e-17 -5.59766395102446e-17
-4.1738954671479997e-20 -3.9937886083644094e-18 1.216821742114345e-17
-3.073699934912e-20 -3.2344348778497697e-18 9.93057619649103e-18
-1.082300944758e-20 -1.3048169349829398e-18 4.03456070390066e-18
-4.533044598212e-20 -4.6778288264623e-18 1.455756977070853e-17
2.7952487520174e-19 2.2295797699768037e-17 -6.978880476714177e-17
4.0036176331359e-19 2.357788869638058e-17 -7.418331720684675e-17
-3.54004243153e-21 -1.4388787308647999e-19 4.5476038212691e-19
4.9541745693512995e-19 1.5166496880543018e-17 -4.812160126497977e-17
9.504081065789e-19 2.242200762794282e-17 -7.137972221738637e-17
1.3272286929114e-19 2.39008512808874e-18 -7.629838750270869e-18
-4.6621255347814e-19 -5.707856354004119e-18 1.8259373514859378e-17
-6.841576711083799e-19 -4.43276031570431e-18 1.419307783149598e-17

SCALARS Gamma float
LOOKUP_TABLE default
-0.00012086469477233935
-0.0004994871287929852
0.002517034257168454
-0.01309043673634594
0.01388379462032431
0.06884729243034596
0.15777776068416746
0.22303647097235152
0.2769271253229285
0.3379980416575368
0.39043597806293767
0.4185240255841038
0.4240318837615031
0.4191135091083356
0.4085258476318442
0.3931544625540026
0.37132462202017835
0.3513459895017056
0.3362435122844565
0.30961518576456326
0.2901812313501123
0.2885207619081714
0.27632565441884227
0.2780258373456824
0.28230594238480833
0.28584954462177414
0.2872302757206715
0.29690599671498
0.30575537939469055
0.3247151826939553
0.3300385531674419
0.3336538561676392
0.33511790299693306
0.3398359210934799
0.3368870082672762
0.332627796081227
0.32805209020204945
0.31663719717632577
0.3142325832189207
0.31889297730893174
0.3353005007666241
0.2602995644142026
0.20599785201309154
0.16309610110566897
0.12950305423508354
0.10237419850999346
0.07934721096571923
0.059423996172712545
0.03997866412279678
0.02135582676869551
-0.00012086469477233935
-0.0004994871287929852
0.002517034257168454
-0.01309043673634594
0.01388379462032431
0.06884729243034596
0.15777776068416746
0.22303647097235152
0.2769271253229285
0.3379980416575368
0.39043597806293767
0.4185240255841038
0.4240318837615031
0.4191135091083356
0.4085258476318442
0.3931544625540026
0.37132462202017835
0.3513459895017056
0.3362435122844565
0.30961518576456326
0.2901812313501123
0.2885207619081714
0.27632565441884227
0.2780258373456824
0.28230594238480833
0.28584954462177414
0.2872302757206715
0.29690599671498
0.30575537939469055
0.3247151826939553
0.3300385531674419
0.3336538561676392
0.33511790299693306
0.3398359210934799
0.3368870082672762
0.332627796081227
0.32805209020204945
0.31663719717632577
0.3142325832189207
0.31889297730893174
0.3353005007666241
0.2602995644142026
0.20599785201309154
0.16309610110566897
0.12950305423508354
0.10237419850999346
0.07934721096571923
0.059423996172712545
0.03997866412279678
0.02135582676869551

VECTORS Ftot float
0.0959003831762353 0.09085785653737476 0.024345289285212963
0.06513609948007738 0.08414810122003534 0.022547415766521393
-0.009542623030525518 0.03925146955182162 0.010517399568145663
0.24009444328785068 0.10755498505310523 0.028819271386921724
-0.12348190335823651 0.259463215834849 0.06952295914853157
-1.0678200106035776 0.6007351653248504 0.1609665024137746
-2.892651311584601 1.1996819507892902 0.3214538098881921
-4.590034456264581 1.7349039764901149 0.46486611944608114
-6.296827866545588 2.232291154973559 0.5981406122463179
-8.421134778468867 2.740211772309324 0.7342375314805568
-10.546878518670864 3.2165930879728397 0.8618835203018748
-12.157562335029986 3.5219379136740514 0.9437004197615383
-13.158680026354016 3.6465145507695316 0.9770806290670583
-13.812254030141814 3.6998166214209305 0.9913628758530075
-14.239317394667427 3.659079010142051 0.9804472658092585
-14.429908420566763 3.5835827314354356 0.9602180988982655
-14.311126216882025 3.3618715864362154 0.9008107766427432
-14.165750343297406 3.2038782370185874 0.8584765862568007
-14.140760897881536 3.0817051651029854 0.8257404103001849
-13.544062028833231 2.8517110909870618 0.7641136838768778
-13.163754369796399 2.7196426278996 0.7287260458469721
-13.552164136551491 2.689962786854391 0.720773356407424
-13.41929980805954 2.505311807663752 0.671296275651675
-13.917841196456472 2.5063035987790365 0.6715620252800759
-14.552344770793203 2.43345103529466 0.6520412397278996
-15.140088712890842 2.3836754911064135 0.638703922859839
-15.602798330826536 2.3285749014832393 0.6239397643678304
-16.518125350500828 2.308247226608986 0.6184929803012716
-17.398468061403957 2.237958057603784 0.5996590542296726
-18.87442653782757 2.182615375366489 0.5848300272172169
-19.566750500667958 2.0562361149657438 0.5509668064527937
-20.150551607817643 1.9151575763135817 0.513164925951583
-20.592782841005494 1.7610754020020534 0.47187873177677647
-21.22640818291788 1.5721749917076981 0.4212630193884951
-21.361413913734907 1.4779654263826267 0.3960196424403545
-21.39240722782755 1.364739417609823 0.36568082482748177
-21.37983811205707 1.286403662155221 0.34469082241493876
-20.893673770606977 1.2193394974206673 0.32672103363324684
-20.978219283094948 1.1940264531656626 0.3199384238671449
-21.52145448003582 1.153361856276827 0.309042377970244
-22.857751543680173 1.1056044200958335 0.29624581151296553
-17.91143554142035 1.0447713529844613 0.2799456403073647
-14.298992790044302 1.111509070595501 0.2978279578459396
-11.41379949182599 1.2348637690251612 0.33088074967275244
-9.133501282602332 1.4673335407698334 0.39317083727638635
-7.272684645665865 1.5855879058938271 0.4248569989128164
-5.675474830079415 1.6365995650598315 0.4385255317909194
-4.278649722766245 1.6427946213378983 0.4401854921176927
-2.9002179901245 1.6584870945471721 0.4443902776413648
-1.5686389337090278 1.7041988766706715 0.4566387127459442
0.0959003831762353 0.09085785653737476 0.024345289285212963
0.06513609948007738 0.08414810122003534 0.022547415766521393
-0.009542623030525518 0.03925146955182162 0.010517399568145663
0.24009444328785068 0.10755498505310523 0.028819271386921724
-0.12348190335823651 0.259463215834849 0.06952295914853157
-1.0678200106035776 0.6007351653248504 0.1609665024137746
-2.892651311584601 1.1996819507892902 0.3214538098881921
-4.590034456264581 1.7349039764901149 0.46486611944608114
-6.296827866545588 2.232291154973559 0.5981406122463179
-8.421134778468867 2.740211772309324 0.7342375314805568
-10.546878518670864 3.2165930879728397 0.8618835203018748
-12.157562335029986 3.5219379136740514 0.9437004197615383
-13.158680026354016 3.6465145507695316 0.9770806290670583
-13.812254030141814 3.6998166214209305 0.9913628758530075
-14.239317394667427 3.659079010142051 0.9804472658092585
-14.429908420566763 3.5835827314354356 0.9602180988982655
-14.311126216882025 3.3618715864362154 0.9008107766427432
-14.165750343297406 3.2038782370185874 0.8584765862568007
-14.140760897881536 3.0817051651029854 0.8257404103001849
-13.544062028833231 2.8517110909870618 0.7641136838768778
-13.163754369796399 2.7196426278996 0.7287260458469721
-13.552164136551491 2.689962786854391 0.720773356407424
-13.41929980805954 2.505311807663752 0.671296275651675
-13.917841196456472 2.5063035987790365 0.6715620252800759
-14.552344770793203 2.43345103529466 0.6520412397278996
-15.140088712890842 2.3836754911064135 0.638703922859839
-15.602798330826536 2.3285749014832393 0.6239397643678304
-16.518125350500828 2.308247226608986 0.6184929803012716
-17.398468061403957 2.237958057603784 0.5996590542296726
-18.87442653782757 2.182615375366489 0.5848300272172169
-19.566750500667958 2.0562361149657438 0.5509668064527937
-20.150551607817643 1.9151575763135817 0.513164925951583
-20.592782841005494 1.7610754020020534 0.47187873177677647
-21.22640818291788 1.5721749917076981 0.4212630193884951
-21.361413913734907 1.4779654263826267 0.3960196424403545
-21.39240722782755 1.364739417609823 0.36568082482748177
-21.37983811205707 1.286403662155221 0.34469082241493876
-20.893673770606977 1.2193394974206673 0.32672103363324684
-20.978219283094948 1.1940264531656626 0.3199384238671449
-21.52145448003582 1.153361856276827 0.309042377970244
-22.857751543680173 1.1056044200958335 0.29624581151296553
-17.91143554142035 1.0447713529844613 0.2799456403073647
-14.298992790044302 1.111509070595501 0.2978279578459396
-11.41379949182599 1.2348637690251612 0.33088074967275244
-9.133501282602332 1.4673335407698334 0.39317083727638635
-7.272684645665865 1.5855879058938271 0.4248569989128164
-5.675474830079415 1.6365995650598315 0.4385255317909194
-4.278649722766245 1.6427946213378983 0.4401854921176927
-2.9002179901245 1.6584870945471721 0.4443902776413648
-1.5686389337090278 1.7041988766706715 0.4566387127459442

VECTORS D float
0.09531500811063832 0.0916614081343757 0.023588144449035613
0.06151439826440454 0.08671905145616042 0.022540157838544406
0.01480509261487852 0.02663267184706737 0.007063148925312617
0.08272796917060489 0.1762993182439947 0.04767624576098543
0.07549870293606424 0.18235618270921428 0.0504626578219138
0.07546606063636273 0.20104191537024732 0.056959767634910154
0.08563131657333538 0.24949679957608203 0.07203062752129837
0.1054621560920399 0.32633328439850956 0.0964498591137331
0.12433745233894203 0.40506773025955534 0.12243238116557766
0.12404894625238883 0.42349321027458237 0.13075097454880164
0.12735045407111908 0.4549386204953794 0.1433201896397897
0.13091852447003888 0.4897968762507968 0.1572297290753577
0.13327728715658688 0.5230750033365849 0.17081593889674868
0.14100603809038278 0.5815714343817553 0.19288035896690317
0.1400224029372285 0.6078882210635836 0.20443972845025124
0.14214925225575475 0.6504147367253522 0.22151035186137788
0.12503893465033372 0.601932835006985 0.20734148738484542
0.1208032754903152 0.6130340467476512 0.21323195496990255
0.11748012910984167 0.6283800516555937 0.22045822245013533
0.11039034160701414 0.6224508941974105 0.22002977095095078
0.1104208392514365 0.6535944997531362 0.2325580977421496
0.10826235661245098 0.6771572503613926 0.2422576980616475
0.09570024467357835 0.6385407383173475 0.22943967532926324
0.0971527298484868 0.692688363918237 0.24961756614445738
0.08765115584191449 0.6721826025464851 0.24252882988659316
0.08339844086646767 0.6937747199567483 0.2502070675177173
0.08087037110597092 0.7372399752218144 0.26531347031969604
0.07785287577816764 0.7868991239617681 0.2821125701093363
0.0713454366928826 0.809949371830077 0.28882905552130705
0.06368697678399847 0.8260762224090882 0.292703927093976
0.05583372028261453 0.8358334685550542 0.2939929635078176
0.04790733647132505 0.8400855131848308 0.2930880423386524
0.04004337252422585 0.8361294485422363 0.2891745805264602
0.0309957054739776 0.7837372178692631 0.2689875731432856
0.026542923962630974 0.8390411487210571 0.285146134635094
0.021297263372155095 0.8601283799308967 0.2896467157065243
0.01677551048844216 0.9035368823670561 0.3015664663564962
0.012384810621051533 0.9510707319575886 0.314726474758972
0.007923356997744152 1.0264557197799886 0.3369251001516969
0.0037140370809652015 1.0659359300127171 0.34719178824286084
-0.00022011158949316963 1.0918234047613815 0.35310592424504395
-0.0036554026297163917 1.0833017628226385 0.3480893166010278
-0.007132943730370943 1.173727056337637 0.37494820630546555
-0.010898527698539181 1.3036820764213939 0.4142940582431444
-0.01574572663940592 1.5321042913438379 0.48464091409397564
-0.01952679349498807 1.642621962821695 0.5175045365498763
-0.02229928622425231 1.683258591638796 0.5284532131443214
-0.02416726594856202 1.6775177375898378 0.5250704214026409
-0.025841080948514925 1.6779420920424883 0.5238627156401489
-0.027722773790479254 1.7059313329855523 0.5314575214322426
0.09531500811063832 0.0916614081343757 0.023588144449035613
0.06151439826440454 0.08671905145616042 0.022540157838544406
0.01480509261487852 0.02663267184706737 0.007063148925312617
0.08272796917060489 0.1762993182439947 0.04767624576098543
0.07549870293606424 0.18235618270921428 0.0504626578219138
0.07546606063636273 0.20104191537024732 0.056959767634910154
0.08563131657333538 0.24949679957608203 0.07203062752129837
0.1054621560920399 0.32633328439850956 0.0964498591137331
0.12433745233894203 0.40506773025955534 0.12243238116557766
0.12404894625238883 0.42349321027458237 0.13075097454880164
0.12735045407111908 0.4549386204953794 0.1433201896397897
0.13091852447003888 0.4897968762507968 0.1572297290753577
0.13327728715658688 0.5230750033365849 0.17081593889674868
0.14100603809038278 0.5815714343817553 0.19288035896690317
0.1400224029372285 0.6078882210635836 0.20443972845025124
0.14214925225575475 0.6504147367253522 0.22151035186137788
0.12503893465033372 0.601932835006985 0.20734148738484542
0.1208032754903152 0.6130340467476512 0.21323195496990255
0.11748012910984167 0.6283800516555937 0.22045822245013533
0.11039034160701414 0.6224508941974105 0.22002977095095078
0.1104208392514365 0.6535944997531362 0.2325580977421496
0.10826235661245098 0.6771572503613926 0.2422576980616475
0.09570024467357835 0.6385407383173475 0.22943967532926324
0.0971527298484868 0.692688363918237 0.24961756614445738
0.08765115584191449 0.6721826025464851 0.24252882988659316
0.08339844086646767 0.6937747199567483 0.2502070675177173
0.08087037110597092 0.7372399752218144 0.26531347031969604
0.07785287577816764 0.7868991239617681 0.2821125701093363