# vtk DataFile Version 4.0
[MyVLM domain - lattices] 
ASCII
DATASET UNSTRUCTURED_GRID
POINTS 152 float
0.0018916144324157278 0.010116922625893969 -0.0003433645586030742
0.0010688609733395774 0.01354966675850939 0.0021763350415913
0.00045780959861706216 0.016933066902748234 0.004638253398065562
-0.00013255382275044122 0.0201621408655037 0.007130481030335805
-0.0007201482309470062 0.023280966406890983 0.009616032306146246
-0.0011946371146526612 0.026174956592066895 0.012191057080261546
-0.0014108622120167862 0.028611370358786324 0.015050848292171376
-0.0013224843579428829 0.030784235155682738 0.01803259758128914
-0.0010167791708201568 0.03297676041063622 0.020898664021134723
-0.0006138083932142036 0.034999519340550865 0.02380799555553901
-0.00020084691410191335 0.036939979672716186 0.026687198046793432
0.0001698744379422134 0.03890802771119382 0.029444065937688457
0.0004739400232210948 0.04084723266058588 0.03212595028782946
0.0007082255455298663 0.042694928181641445 0.03478543439936916
0.0008836440760600275 0.04446012016259951 0.03741496143480777
0.001017516815515788 0.04618818975195192 0.03997645208918339
0.0011275777072549662 0.047920701715020164 0.04243502938324478
0.0012277625198140337 0.04966804277498075 0.044781977821405396
0.00132638558954348 0.05140430125757032 0.04703903987998281
0.0014271324949937316 0.05309130947457372 0.04923824205208127
0.0015306083418583354 0.05470387186705039 0.05140072592191506
0.0016355657532635378 0.05624141653498982 0.05352697137057209
0.0017398364473795213 0.05771937067680761 0.05560403344155175
0.0018410131526058282 0.05915557924048415 0.05761693844558527
0.001936923789896676 0.06056315746906381 0.05955468138707135
0.0020259353317291845 0.061949430894655474 0.06141111541471926
0.0021071205190511294 0.06331633685664928 0.06318461490776126
0.002180316672546981 0.0646610783624326 0.06487752682166699
0.0022461021518325993 0.06597693694490614 0.06649548861970156
0.0023056987632523672 0.06725428195759263 0.06804658137377206
0.0023607022647827588 0.06848259404074952 0.06953963187475866
0.0024126938092907785 0.06965318206838815 0.07098193284327299
0.0024629658139780817 0.07076091155363551 0.07237779262535644
0.0025123806343549317 0.0718048600790432 0.07372798522114977
0.0025613283706516186 0.0727881950648737 0.07502985284947897
0.0026097549007438213 0.07371752514013859 0.07627785021217781
0.0026572361369983943 0.07460192466528477 0.07746436301674213
0.002703078927872171 0.07545114667800364 0.07858120749284223
0.0027464329900004744 0.07627132247219487 0.07962323887402824
0.0027864017842759935 0.07706139720464224 0.08059134227885385
0.0028221433614242725 0.07781277879683733 0.08149272731722652
0.0028529549202113143 0.07851116335018189 0.08233939638518445
0.002878337166053322 0.07913897646162256 0.08314609615784786
0.0028980365508205295 0.07967459375749916 0.08393097163917945
0.0029120651374179955 0.08009134535165277 0.08471640152081872
0.002920699186668212 0.08036206200215566 0.08552518350364659
0.0029244586304951574 0.08046631399158743 0.08637446015601556
0.002924070395798875 0.0803970829954514 0.08727012055142229
0.0029204190990956736 0.08016496974727041 0.08820326961827755
0.0029144889643634465 0.07979912158816595 0.08914944983339651
0.002907300946956263 0.07934487387024235 0.0900706203195491
0.006212993241944028 -0.001063740620621318 0.009038325847865226
0.0072288922610571306 -0.000742908316298833 0.014169229515436407
0.007974780507892725 0.0006852045646502268 0.01827182869338275
0.008270023946844132 0.0027894095119339914 0.021707933501658044
0.008140225139500825 0.005369443021706646 0.024645584972477576
0.007751519283975376 0.008130754402286739 0.027331940482594266
0.007318662739924205 0.01071407298880299 0.03006846391439443
0.0069707766105224795 0.01322911522786363 0.032763092237995
0.006702226685381192 0.015902374826193458 0.035225774667619246
0.006460614097576536 0.0185031040865902 0.03765013151088459
0.006208498480286784 0.021086344140989352 0.039989977774284376
0.005928720355726676 0.023736265323728845 0.04217468616131957
0.00562110152420414 0.026376273581795732 0.04426852671362373
0.005297776270156929 0.028927850020886447 0.04633738460644741
0.004977662142563614 0.031387527919157464 0.04838416876481091
0.004680078492205027 0.033790812719966756 0.05037908658428777
0.0044193472589770496 0.03617127856746833 0.05229396601290128
0.0042022226504668725 0.03853281488605525 0.054125543436077686
0.004028605706719037 0.040844434227281366 0.05589982041037936
0.003894567528214928 0.04306441944065872 0.05765180178139445
0.003794542923454683 0.04516549379132602 0.059404375447284795
0.0037223892098821663 0.047146288675346384 0.06115868980310907
0.0036720478837599236 0.04902252945112062 0.06290154970643301
0.0036379885391020494 0.050813276103293274 0.06461696193117117
0.003615480687410345 0.05253360816306644 0.0662922732482535
0.003600729157216099 0.05419340702690866 0.06791919218154777
0.0035909263662617956 0.05579761275654749 0.06949357352708035
0.003584242976167935 0.05734674584465089 0.07101498053964558
0.00357976601221264 0.05883759957545412 0.0724861039732589
0.003577378730160166 0.06026413991584895 0.07391200698287595
0.0035774796054096774 0.06161943118640498 0.07529850929454875
0.003580588564800478 0.06289826713821542 0.07664997946981479
0.0035870678637920984 0.06409882538449983 0.07796794667274941
0.0035969747054953923 0.06522326101067417 0.07925060257197493
0.0036100119296844893 0.06627753479373488 0.08049294548171208
0.0036255480079795204 0.0672707271709294 0.08168735601041564
0.0036426825552804717 0.06821403716103477 0.08282443706556022
0.0036603380175139954 0.06911898096841507 0.08389452540431139
0.003677362157174432 0.06999308776890599 0.0848913032980023
0.0036926294639041822 0.0708363412177387 0.0858147844615225
0.0037051326977571345 0.07164084297523948 0.0866715963887791
0.003714058455611533 0.0723926604047464 0.08747342995005644
0.003718842962038476 0.07307429669812839 0.08823496671060412
0.003719206248598144 0.07366394557010073 0.08897450431636185
0.003715164522496519 0.07413453402746269 0.08971475970593924
0.0037070218583473346 0.07445830978451326 0.09047901981203235
0.003695343396461056 0.07461412316196905 0.09128503132272738
0.003680913018392471 0.07459414257911764 0.09213936571451165
0.0036646790161518838 0.07440810534141863 0.09303385241796537
0.003647691596346039 0.07408428676793803 0.09394476562328881
0.0036310361855396924 0.07366718066040329 0.09483477059786279
0.005410766489344848 0.0022808303217053635 0.00893195457161164
0.005892211109850776 0.003788702800788975 0.013017220383264295
0.006132458642509649 0.005939881249750574 0.01646350262669047
0.006047255650667177 0.008489958109164572 0.019475883594861115
0.005720055990603616 0.011244564408867255 0.022217458218952914
0.005325630843128663 0.0139151011405153 0.024930389820424875
0.005016871435172548 0.016403146270558618 0.027697264291328603
0.004834968294868498 0.01889443321606128 0.030362232789908322
0.004732241848104854 0.021399089561192255 0.032916797264023155
0.00464908530328423 0.023838480462000718 0.035426940182229916
0.004547585503985086 0.026289479472258074 0.03782815697391171
0.004411660012619469 0.02876160963604418 0.04011245685629348
0.004242349868979272 0.031181816456284234 0.0423411398309265
0.00405227310746894 0.033512647770546584 0.04454563199349399
0.003859297849485217 0.03577291647899051 0.046710147446410895
0.0036804214720396232 0.03799939566615967 0.04880382990799942
0.003527506244425096 0.04021262810632146 0.050809441943948375
0.003405829147614405 0.04240051142157012 0.052737138655094926
0.003315379723667389 0.04452777146699554 0.054616518563423186
0.003253134023982613 0.046560615129697294 0.05647593745750427
0.003214621311891553 0.04848507947525718 0.05832711163045859
0.0031948391851961662 0.05030840519889981 0.060163965417593765
0.0031888698585714084 0.05204779582256668 0.0619720633499937
0.0031922930777549615 0.05371992368857839 0.06373741567136633
0.003201436081938149 0.05533670424170558 0.0654500241363993
0.0032135028026517493 0.056904853387709155 0.06710425343104562
0.003226618152360912 0.058426311377834626 0.06869847549120076
0.0032398057236901635 0.059898881445956724 0.07023453362251025
0.003252904392775423 0.061317054672051 0.07171705035773478
0.003266372004343082 0.062673448663138 0.07315222026010061
0.0032809500730880004 0.06396110888537486 0.07454587887639029
0.0032973286136308236 0.06517567139877117 0.07590168798704026
0.0033159342695244357 0.0663165038522751 0.07722017819758491
0.0033368336138182735 0.06738693031964302 0.07849856027896122
0.0033597203855484335 0.06839381326237565 0.079731075942255
0.0033839603409402744 0.06934671785016448 0.08090969905710595
0.003408672097906746 0.07025651571645473 0.08202530723989991
0.0034328265552422406 0.07113233442027021 0.08307024155922645
0.0034553512046890385 0.07197762582959641 0.08404160555393207
0.003475228953835527 0.07278821607255177 0.08494290151837315
0.0034915839677176984 0.07355305653587212 0.0857834003398647
0.0035037495424018335 0.07425637639005361 0.08657633531562675
0.0035113151685979642 0.07487853712797614 0.08733818510974066
0.003514151750190315 0.07539517223773028 0.08808939565336268
0.003512415433327221 0.07577899234871704 0.08885286544729752
0.0035065316976985676 0.07600570935414876 0.08964897463299268
0.0034971622838568268 0.07606102427628737 0.09048972147739437
0.003485158199815951 0.07594609956304134 0.09137413057089136
0.0034715024876191118 0.0756801584579383 0.09228607169692958
0.003457246657122113 0.07529979971792902 0.09319483485205005

CELLS 100 350
4 0 51 52 1
4 1 52 53 2
4 2 53 54 3
4 3 54 55 4
4 4 55 56 5
4 5 56 57 6
4 6 57 58 7
4 7 58 59 8
4 8 59 60 9
4 9 60 61 10
4 10 61 62 11
4 11 62 63 12
4 12 63 64 13
4 13 64 65 14
4 14 65 66 15
4 15 66 67 16
4 16 67 68 17
4 17 68 69 18
4 18 69 70 19
4 19 70 71 20
4 20 71 72 21
4 21 72 73 22
4 22 73 74 23
4 23 74 75 24
4 24 75 76 25
4 25 76 77 26
4 26 77 78 27
4 27 78 79 28
4 28 79 80 29
4 29 80 81 30
4 30 81 82 31
4 31 82 83 32
4 32 83 84 33
4 33 84 85 34
4 34 85 86 35
4 35 86 87 36
4 36 87 88 37
4 37 88 89 38
4 38 89 90 39
4 39 90 91 40
4 40 91 92 41
4 41 92 93 42
4 42 93 94 43
4 43 94 95 44
4 44 95 96 45
4 45 96 97 46
4 46 97 98 47
4 47 98 99 48
4 48 99 100 49
4 49 100 101 50
1 102
1 103
1 104
1 105
1 106
1 107
1 108
1 109
1 110
1 111
1 112
1 113
1 114
1 115
1 116
1 117
1 118
1 119
1 120
1 121
1 122
1 123
1 124
1 125
1 126
1 127
1 128
1 129
1 130
1 131
1 132
1 133
1 134
1 135
1 136
1 137
1 138
1 139
1 140
1 141
1 142
1 143
1 144
1 145
1 146
1 147
1 148
1 149
1 150
1 151

CELL_TYPES 100
9
9
9
9
9
9
9
9
9
9
9
9
9
9
9
9
9
9
9
9
9
9
9
9
9
9
9
9
9
9
9
9
9
9
9
9
9
9
9
9
9
9
9
9
9
9
9
9
9
9
1
1
1
1
1
1
1
1
1
1
1
1
1
1
1
1
1
1
1
1
1
1
1
1
1
1
1
1
1
1
1
1
1
1
1
1
1
1
1
1
1
1
1
1
1
1
1
1
1
1

CELL_DATA 100

VECTORS S float
1.4706356648e-22 1.220299196287e-20 1.563370371642e-20
5.14044568090619e-18 6.02624314760496e-18 4.96596833395742e-18
-2.9147606152692e-19 1.0379857199960399e-18 1.50568703332769e-18
-1.7680855494105999e-19 4.10288072225023e-18 5.555604451868509e-18
-5.3701480725173e-19 2.99721275050136e-17 4.096213210805924e-17
-9.731387792999e-20 1.0968279024367229e-17 1.5230416755333238e-17
-7.0710737929e-20 2.144686496770682e-17 3.0247832021991467e-17
-3.89327696043e-21 -3.21157629387687e-18 -4.60993126427872e-18
3.6421150295518998e-19 7.497437745989572e-17 1.0943091991507982e-16
-1.3711147719815e-19 -1.727673992490938e-17 -2.560735342691e-17
8.5092064384224e-19 8.025679530299475e-17 1.2063385726289496e-16
1.11275686956533e-18 8.6806252951105e-17 1.3211990605436258e-16
4.2511247731226e-19 2.89786153681915e-17 4.4585302569489175e-17
-1.998156997644e-19 -1.234149193008935e-17 -1.9163447886179998e-17
-1.32767830580206e-18 -7.869351340133823e-17 -1.2315273149008865e-16
-6.632491095916e-20 -3.7704330681030796e-18 -5.946971247061129e-18
-2.5951497272129997e-20 -1.43315388872242e-18 -2.27602758929613e-18
-1.63941952383272e-18 -9.056282714053883e-17 -1.44591979331118e-16
7.535517184696999e-20 4.10575440559529e-18 6.5902021578819494e-18
6.1550010996745e-19 3.24865669696726e-17 5.2383466653429345e-17
8.299620677516799e-19 4.4071668028660087e-17 7.135105108175414e-17
1.00630660648307e-18 5.4996813657545065e-17 8.93467259110188e-17
-9.7332628929488e-19 -5.392344353716881e-17 -8.784501025396821e-17
-7.237283952519699e-19 -4.018811351200015e-17 -6.569404419615622e-17
1.7552081411390999e-19 1.0037963489355609e-17 1.643309764670262e-17
1.4746185489071e-19 8.77395511529888e-18 1.437326512954342e-17
-5.3979705797952e-19 -3.385765209092775e-17 -5.5463091800065576e-17
-5.7765344898993995e-19 -3.8747355792287935e-17 -6.341884722897309e-17
-5.050791923638999e-19 -3.682141507767594e-17 -6.016716663602656e-17
-1.07200829899196e-18 -8.657383736627242e-17 -1.4113669469499042e-16
-1.3883028823136e-19 -1.240141445751066e-17 -2.01533850206003e-17
-3.344369715559e-19 -3.377087562774382e-17 -5.4680674750103395e-17
-3.6607095243102997e-19 -4.1840751132892526e-17 -6.747398835511513e-17
-4.2992200094993997e-19 -5.4575349866137506e-17 -8.763044219047298e-17
-3.7257712957118e-19 -5.2326113568380715e-17 -8.36109077690038e-17
-6.54528481249e-20 -1.0042656263730229e-17 -1.5978184291324088e-17
3.2299408783112e-19 5.301509059261827e-17 8.39940183154335e-17
-2.5541686606631997e-19 -4.3873083925782175e-17 -6.93747011044038e-17
-3.997091671299e-20 -7.390546969869639e-18 -1.16364504244149e-17
-3.596623143334e-19 -7.002527605753463e-17 -1.098176768178263e-16
8.775407983592e-20 1.8299219037139208e-17 2.859322138779746e-17
-2.8427121860133e-19 -6.089163568135446e-17 -9.48292755934316e-17
-5.234016041734e-20 -1.009827849290807e-17 -1.567932693862109e-17
-2.1700731897409e-19 -3.4673647141326376e-17 -5.3692620389674915e-17
-3.9079162976609996e-19 -4.018867678840204e-17 -6.208571721006775e-17
-5.6277777124133e-19 -4.354856160642372e-17 -6.713740962207219e-17
1.3100045710417e-18 8.032204053550143e-17 1.2360849593037622e-16
3.3410447228524996e-19 1.545383756493072e-17 2.3745808400159008e-17
-7.544246647989599e-19 -2.5257273076416738e-17 -3.87599145519508e-17
1.7106366738939799e-18 2.905828405183989e-17 4.455353607950958e-17
1.4706356648e-22 1.220299196287e-20 1.563370371642e-20
5.14044568090619e-18 6.02624314760496e-18 4.96596833395742e-18
-2.9147606152692e-19 1.0379857199960399e-18 1.50568703332769e-18
-1.7680855494105999e-19 4.10288072225023e-18 5.555604451868509e-18
-5.3701480725173e-19 2.99721275050136e-17 4.096213210805924e-17
-9.731387792999e-20 1.0968279024367229e-17 1.5230416755333238e-17
-7.0710737929e-20 2.144686496770682e-17 3.0247832021991467e-17
-3.89327696043e-21 -3.21157629387687e-18 -4.60993126427872e-18
3.6421150295518998e-19 7.497437745989572e-17 1.0943091991507982e-16
-1.3711147719815e-19 -1.727673992490938e-17 -2.560735342691e-17
8.5092064384224e-19 8.025679530299475e-17 1.2063385726289496e-16
1.11275686956533e-18 8.6806252951105e-17 1.3211990605436258e-16
4.2511247731226e-19 2.89786153681915e-17 4.4585302569489175e-17
-1.998156997644e-19 -1.234149193008935e-17 -1.9163447886179998e-17
-1.32767830580206e-18 -7.869351340133823e-17 -1.2315273149008865e-16
-6.632491095916e-20 -3.7704330681030796e-18 -5.946971247061129e-18
-2.5951497272129997e-20 -1.43315388872242e-18 -2.27602758929613e-18
-1.63941952383272e-18 -9.056282714053883e-17 -1.44591979331118e-16
7.535517184696999e-20 4.10575440559529e-18 6.5902021578819494e-18
6.1550010996745e-19 3.24865669696726e-17 5.2383466653429345e-17
8.299620677516799e-19 4.4071668028660087e-17 7.135105108175414e-17
1.00630660648307e-18 5.4996813657545065e-17 8.93467259110188e-17
-9.7332628929488e-19 -5.392344353716881e-17 -8.784501025396821e-17
-7.237283952519699e-19 -4.018811351200015e-17 -6.569404419615622e-17
1.7552081411390999e-19 1.0037963489355609e-17 1.643309764670262e-17
1.4746185489071e-19 8.77395511529888e-18 1.437326512954342e-17
-5.3979705797952e-19 -3.385765209092775e-17 -5.5463091800065576e-17
-5.7765344898993995e-19 -3.8747355792287935e-17 -6.341884722897309e-17
-5.050791923638999e-19 -3.682141507767594e-17 -6.016716663602656e-17
-1.07200829899196e-18 -8.657383736627242e-17 -1.4113669469499042e-16
-1.3883028823136e-19 -1.240141445751066e-17 -2.01533850206003e-17
-3.344369715559e-19 -3.377087562774382e-17 -5.4680674750103395e-17
-3.6607095243102997e-19 -4.1840751132892526e-17 -6.747398835511513e-17
-4.2992200094993997e-19 -5.4575349866137506e-17 -8.763044219047298e-17
-3.7257712957118e-19 -5.2326113568380715e-17 -8.36109077690038e-17
-6.54528481249e-20 -1.0042656263730229e-17 -1.5978184291324088e-17
3.2299408783112e-19 5.301509059261827e-17 8.39940183154335e-17
-2.5541686606631997e-19 -4.3873083925782175e-17 -6.93747011044038e-17
-3.997091671299e-20 -7.390546969869639e-18 -1.16364504244149e-17
-3.596623143334e-19 -7.002527605753463e-17 -1.098176768178263e-16
8.775407983592e-20 1.8299219037139208e-17 2.859322138779746e-17
-2.8427121860133e-19 -6.089163568135446e-17 -9.48292755934316e-17
-5.234016041734e-20 -1.009827849290807e-17 -1.567932693862109e-17
-2.1700731897409e-19 -3.4673647141326376e-17 -5.3692620389674915e-17
-3.9079162976609996e-19 -4.018867678840204e-17 -6.208571721006775e-17
-5.6277777124133e-19 -4.354856160642372e-17 -6.713740962207219e-17
1.3100045710417e-18 8.032204053550143e-17 1.2360849593037622e-16
3.3410447228524996e-19 1.545383756493072e-17 2.3745808400159008e-17
-7.544246647989599e-19 -2.5257273076416738e-17 -3.87599145519508e-17
1.7106366738939799e-18 2.905828405183989e-17 4.455353607950958e-17

SCALARS Gamma float
LOOKUP_TABLE default
0.00025717293367739425
-0.000394901938608765
0.0023639552823356805
0.021223431123526114
0.05645143133227338
0.09701396243054604
0.14552899459435673
0.18804517322621284
0.23000828155280909
0.2603543872766271
0.2778280338100273
0.28119496032683705
0.27471840015410787
0.24890404760542084
0.23868469664857975
0.2290649174610673
0.21671073942688285
0.21245904107771785
0.20687225848345922
0.19947181178656687
0.19834060381122928
0.19569054788759907
0.18878163947666257
0.18482349583813312
0.1829208806203949
0.1829439897498889
0.18402311358679366
0.1851017101408385
0.1877662159448306
0.1922291402901163
0.19312586148550107
0.20106199430503777
0.20085425627613657
0.20057709710348376
0.19996893632594603
0.19861161178882958
0.1967838033627878
0.195494037017603
0.193444657522775
0.18877888931384681
0.186920568468072
0.18176683380877592
0.1796011376486511
0.1552386820587007
0.11642369920626894
0.09073239259538202
0.07266402415023389
0.05567552832451125
0.04051512213561028
0.02113661109464726
0.00025717293367739425
-0.000394901938608765
0.0023639552823356805
0.021223431123526114
0.05645143133227338
0.09701396243054604
0.14552899459435673
0.18804517322621284
0.23000828155280909
0.2603543872766271
0.2778280338100273
0.28119496032683705
0.27471840015410787
0.24890404760542084
0.23868469664857975
0.2290649174610673
0.21671073942688285
0.21245904107771785
0.20687225848345922
0.19947181178656687
0.19834060381122928
0.19569054788759907
0.18878163947666257
0.18482349583813312
0.1829208806203949
0.1829439897498889
0.18402311358679366
0.1851017101408385
0.1877662159448306
0.1922291402901163
0.19312586148550107
0.20106199430503777
0.20085425627613657
0.20057709710348376
0.19996893632594603
0.19861161178882958
0.1967838033627878
0.195494037017603
0.193444657522775
0.18877888931384681
0.186920568468072
0.18176683380877592
0.1796011376486511
0.1552386820587007
0.11642369920626894
0.09073239259538202
0.07266402415023389
0.05567552832451125
0.04051512213561028
0.02113661109464726

VECTORS Ftot float
-0.0016020549268989741 0.000187559619864086 -0.00013133065969257995
0.020204837970695087 -0.040745570338556567 0.02853035549971112
0.004604672412156469 -0.08230176703255643 0.05762831768417508
-0.21274968554869123 -0.17676292453886155 0.12377073223810431
-0.754496870708359 -0.31405733633698024 0.21990531433321464
-1.541681171836013 -0.4937917582967836 0.3457567114652331
-2.661574634045566 -0.704599039975891 0.493365559206441
-3.8630749971106906 -0.9208742858314197 0.6448031166826397
-5.227809349398914 -1.1539722271684119 0.8080200523479655
-6.468830598596945 -1.3567708424651435 0.9500211715172272
-7.476157691728427 -1.5103765802247464 1.0575770670087645
-8.135538050717287 -1.5868037237629757 1.1110919290380679
-8.490630928221277 -1.6111205023956716 1.128118720741658
-8.172808843861297 -1.5164429678478535 1.0618247973521662
-8.290241348584727 -1.4599861494428972 1.0222933075216791
-8.385059495742778 -1.4126622418468102 0.9891567506853596
-8.32932769237198 -1.3464650885762581 0.9428050049572956
-8.546434361403199 -1.311716874204325 0.9184740433147411
-8.683493378699719 -1.2861718559275224 0.9005872289536193
-8.707061817243357 -1.2782115464696948 0.8950133602647665
-8.986550444234254 -1.2665398701773571 0.8868407645413281
-9.18409860383411 -1.2217721800824 0.855494090468603
-9.153164460890892 -1.1743566249027309 0.8222933613034005
-9.241269234076707 -1.150880137062705 0.8058549475471258
-9.413729744750485 -1.1250770996770885 0.7877874662610103
-9.673438516274611 -1.1055167694547736 0.7740911755894743
-9.983195998495226 -1.0825381801648502 0.758001394151245
-10.287246484136828 -1.0500908915256504 0.7352815580516112
-10.675489111049405 -1.0158020846604658 0.7112722770083924
-11.166611446794496 -0.9771090665420491 0.6841791340457922
-11.445479964499183 -0.9291528540816689 0.6505998325770477
-12.14238922325473 -0.8990288469971659 0.629506775735396
-12.345419794362398 -0.8361263034762786 0.5854619405895067
-12.532538006619586 -0.7942066035853022 0.5561094507263564
-12.687332950736257 -0.7601070295618615 0.5322326719454034
-12.783974339408454 -0.7305357913113095 0.5115266680081717
-12.83791216297688 -0.7151534071534377 0.5007558066651923
-12.91511601208612 -0.7013213552212796 0.491070499633387
-12.931094366452113 -0.6824386962755878 0.47784871949817076
-12.758156754498511 -0.6679333730420892 0.4676919828259067
-12.761724687895613 -0.650355888238855 0.4553840954639155
-12.52687519400748 -0.6464564863745855 0.45265370488404505
-12.484779580580978 -0.7421375163273771 0.5196502833206583
-10.876986213748106 -0.8077066218608168 0.5655622652888405
-8.21727402792703 -0.9777820241808731 0.6846503440573926
-6.4471242600597956 -1.0481689115483088 0.7339357731831885
-5.194942837115714 -1.0924365046340807 0.7649322755602459
-4.003096029895496 -1.1400459460850307 0.7982687653541547
-2.928978447889038 -1.1736762907723794 0.8218169862168271
-1.5395588990499978 -1.2315653780178875 0.8623513614862112
-0.0016020549268989741 0.000187559619864086 -0.00013133065969257995
0.020204837970695087 -0.040745570338556567 0.02853035549971112
0.004604672412156469 -0.08230176703255643 0.05762831768417508
-0.21274968554869123 -0.17676292453886155 0.12377073223810431
-0.754496870708359 -0.31405733633698024 0.21990531433321464
-1.541681171836013 -0.4937917582967836 0.3457567114652331
-2.661574634045566 -0.704599039975891 0.493365559206441
-3.8630749971106906 -0.9208742858314197 0.6448031166826397
-5.227809349398914 -1.1539722271684119 0.8080200523479655
-6.468830598596945 -1.3567708424651435 0.9500211715172272
-7.476157691728427 -1.5103765802247464 1.0575770670087645
-8.135538050717287 -1.5868037237629757 1.1110919290380679
-8.490630928221277 -1.6111205023956716 1.128118720741658
-8.172808843861297 -1.5164429678478535 1.0618247973521662
-8.290241348584727 -1.4599861494428972 1.0222933075216791
-8.385059495742778 -1.4126622418468102 0.9891567506853596
-8.32932769237198 -1.3464650885762581 0.9428050049572956
-8.546434361403199 -1.311716874204325 0.9184740433147411
-8.683493378699719 -1.2861718559275224 0.9005872289536193
-8.707061817243357 -1.2782115464696948 0.8950133602647665
-8.986550444234254 -1.2665398701773571 0.8868407645413281
-9.18409860383411 -1.2217721800824 0.855494090468603
-9.153164460890892 -1.1743566249027309 0.8222933613034005
-9.241269234076707 -1.150880137062705 0.8058549475471258
-9.413729744750485 -1.1250770996770885 0.7877874662610103
-9.673438516274611 -1.1055167694547736 0.7740911755894743
-9.983195998495226 -1.0825381801648502 0.758001394151245
-10.287246484136828 -1.0500908915256504 0.7352815580516112
-10.675489111049405 -1.0158020846604658 0.7112722770083924
-11.166611446794496 -0.9771090665420491 0.6841791340457922
-11.445479964499183 -0.9291528540816689 0.6505998325770477
-12.14238922325473 -0.8990288469971659 0.629506775735396
-12.345419794362398 -0.8361263034762786 0.5854619405895067
-12.532538006619586 -0.7942066035853022 0.5561094507263564
-12.687332950736257 -0.7601070295618615 0.5322326719454034
-12.783974339408454 -0.7305357913113095 0.5115266680081717
-12.83791216297688 -0.7151534071534377 0.5007558066651923
-12.91511601208612 -0.7013213552212796 0.491070499633387
-12.931094366452113 -0.6824386962755878 0.47784871949817076
-12.758156754498511 -0.6679333730420892 0.4676919828259067
-12.761724687895613 -0.650355888238855 0.4553840954639155
-12.52687519400748 -0.6464564863745855 0.45265370488404505
-12.484779580580978 -0.7421375163273771 0.5196502833206583
-10.876986213748106 -0.8077066218608168 0.5655622652888405
-8.21727402792703 -0.9777820241808731 0.6846503440573926
-6.4471242600597956 -1.0481689115483088 0.7339357731831885
-5.194942837115714 -1.0924365046340807 0.7649322755602459
-4.003096029895496 -1.1400459460850307 0.7982687653541547
-2.928978447889038 -1.1736762907723794 0.8218169862168271
-1.5395588990499978 -1.2315653780178875 0.8623513614862112

VECTORS D float
-0.00037956567910976766 0.0006363541848864937 -0.0004931400045101799
0.01733636153287601 -0.04020641233916947 0.030845342093096004
0.02718814075977436 -0.0747298694562421 0.05678021238762941
0.03954250157807811 -0.1188462525358015 0.08902783761670577
0.04578007557468659 -0.14669481442033194 0.10793725895242925
0.052752680692913285 -0.1779010693116426 0.12845361793450247
0.054682406859567746 -0.19507378650403412 0.1384425762543083
0.056654438413501235 -0.20982917037194312 0.14613272504313665
0.05876191102763449 -0.22589150170523664 0.15456941203660954
0.06253533976793112 -0.25012863026846655 0.16842166030235736
0.06756573932755457 -0.28228865414037047 0.1873279207183416
0.07063523094166116 -0.30960465130471165 0.20282348540655024
0.0741845101980264 -0.34234080235855197 0.2218001248295972
0.07337885250996731 -0.3573098324101864 0.22934673303958403
0.06812442348862162 -0.3524194484642241 0.22445849910909382
0.06401074302361986 -0.34908856288631096 0.22061138348701553
0.05962224175151186 -0.3423379530224765 0.21488126263817037
0.05524657606572576 -0.334618454024033 0.20895640985172864
0.05360701558653354 -0.3411835329863313 0.21194740227094727
0.05629892193698896 -0.37611668537337556 0.232594149901542
0.0541241873005188 -0.3795208742266434 0.2337904866649102
0.0486907175495913 -0.35877348662500685 0.22029235652172152
0.04617848487160838 -0.3584910272411819 0.21954717606541532
0.04518905717573965 -0.36956550403675575 0.22558263848495158
0.0434018194559775 -0.3773480870993958 0.2300350475405037
0.0418282917969735 -0.38968324221789197 0.23744745318122754
0.03967843748330037 -0.3984782944385587 0.2428663948924022
0.03691880880116246 -0.40310832542699754 0.24595299524445874
0.03383755111165305 -0.4056042616592169 0.24793974964925217
0.03037915720908423 -0.40585847876763814 0.2487245383050175
0.02729655237853249 -0.4092603394166407 0.25165090116170197
0.024369996741035013 -0.4149710997123745 0.25613778969619055
0.020938121193900674 -0.41023982154875 0.2542769126075421
0.01864257700195862 -0.4264544984021038 0.26550007071406595
0.01655482584386502 -0.4488403559324877 0.28082344894486094
0.01450452266689249 -0.47252736623308195 0.2969348998272318
0.012702547972861633 -0.5073769259203417 0.3201957875544778
0.010544007507125515 -0.5437819709030534 0.3438529975574826
0.008376701437604588 -0.5661207446225756 0.3595260562050294
0.006313562571171914 -0.5897297874290184 0.37602070641180346
0.004289421354419732 -0.603805358330834 0.3864129173771758
0.0024935183127726486 -0.6283260796666071 0.4034523479931908
0.0009515024495912149 -0.7499134455997394 0.48297895994492035
-0.0008622507268705072 -0.8356588987623189 0.5396557048365728
-0.003030324415151093 -1.0185895513692882 0.6593618037290288
-0.005037716070420576 -1.0937092263943422 0.7094747772948127
-0.006803181796333396 -1.1393408716566507 0.7404272270068007
-0.008434067799371253 -1.1857035505027478 0.771777806868841
-0.009812052800026396 -1.2162003043072713 0.7927082918351822
-0.011235700722283375 -1.267925460740884 0.8273856946100963
-0.00037956567910976766 0.0006363541848864937 -0.0004931400045101799
0.01733636153287601 -0.04020641233916947 0.030845342093096004
0.02718814075977436 -0.0747298694562421 0.05678021238762941
0.03954250157807811 -0.1188462525358015 0.08902783761670577
0.04578007557468659 -0.14669481442033194 0.10793725895242925
0.052752680692913285 -0.1779010693116426 0.12845361793450247
0.054682406859567746 -0.19507378650403412 0.1384425762543083
0.056654438413501235 -0.20982917037194312 0.14613272504313665
0.05876191102763449 -0.22589150170523664 0.15456941203660954
0.06253533976793112 -0.25012863026846655 0.16842166030235736
0.06756573932755457 -0.28228865414037047 0.1873279207183416
0.07063523094166116 -0.30960465130471165 0.20282348540655024
0.0741845101980264 -0.34234080235855197 0.2218001248295972
0.07337885250996731 -0.3573098324101864 0.22934673303958403
0.06812442348862162 -0.3524194484642241 0.22445849910909382
0.06401074302361986 -0.34908856288631096 0.22061138348701553
0.05962224175151186 -0.3423379530224765 0.21488126263817037
0.05524657606572576 -0.334618454024033 0.20895640985172864
0.05360701558653354 -0.3411835329863313 0.21194740227094727
0.05629892193698896 -0.37611668537337556 0.232594149901542
0.0541241873005188 -0.3795208742266434 0.2337904866649102
0.0486907175495913 -0.35877348662500685 0.22029235652172152
0.04617848487160838 -0.3584910272411819 0.21954717606541532
0.04518905717573965 -0.36956550403675575 0.22558263848495158
0.0434018194559775 -0.3773480870993958 0.2300350475405037
0.0418282917969735 -0.38968324221789197 0.23744745318122754
0.03967843748330037 -0.3984782944385587 0.2428663948924022