# vtk DataFile Version 4.0
[MyVLM domain - lattices] 
ASCII
DATASET UNSTRUCTURED_GRID
POINTS 152 float
0.0018916144324157278 -0.005355823743456365 -0.00858982972284401
0.0010688609733395774 -0.004890071946090285 -0.012822523146478053
0.00045780959861706216 -0.004449688179459791 -0.01698359280079388
-0.00013255382275044122 -0.003905892719277981 -0.02102616669937405
-0.0007201482309470062 -0.0033127549427109937 -0.024969924486092344
-0.0011946371146526612 -0.002529713165540849 -0.0287637058918151
-0.0014108622120167862 -0.0012712682098672142 -0.03230359771387912
-0.0013224843579428829 0.00022457002377669827 -0.03567622847153916
-0.0010167791708201568 0.001610393742140205 -0.039008044260690565
-0.0006138083932142036 0.0031185692940081024 -0.04221447064693056
-0.00020084691410191335 0.004641801627991156 -0.04533455983524889
0.0001698744379422134 0.006045295237145007 -0.04841737337788611
0.0004739400232210948 0.00739827273968296 -0.051437716302274616
0.0007082255455298663 0.008777605780709598 -0.054367609617737254
0.0008836440760600275 0.010172247002858334 -0.05721107423352278
0.001017516815515788 0.01152652818642779 -0.05998837172459709
0.0011275777072549662 0.01278946259871839 -0.06271805974400528
0.0012277625198140337 0.01394830903755736 -0.06540477571008704
0.00132638558954348 0.01503485287690857 -0.06803695069283451
0.0014271324949937316 0.016095913717502026 -0.07059754375120171
0.0015306083418583354 0.017162398487813788 -0.07307530568319079
0.0016355657532635378 0.018235008727062064 -0.07546998114940812
0.0017398364473795213 0.019294820174858635 -0.07778845801734054
0.0018410131526058282 0.020319942761918175 -0.08003870362063392
0.001936923789896676 0.021294288260959242 -0.08222657359514081
0.0020259353317291845 0.02220887057655632 -0.0843553386121184
0.0021071205190511294 0.02306131321013258 -0.0864258636463104
0.002180316672546981 0.023855047181052587 -0.08843689990879493
0.0022461021518325993 0.024598313909266478 -0.09038544776802206
0.0023056987632523672 0.025302927131574227 -0.09226720737544113
0.0023607022647827588 0.025981790752983226 -0.09407748209372364
0.0024126938092907785 0.026645566017800198 -0.09581239154728174
0.0024629658139780817 0.02730055130658178 -0.09746964331306872
0.0025123806343549317 0.0279478781318366 -0.09904882555421173
0.0025613283706516186 0.028583661077418984 -0.10055135244653553
0.0026097549007438213 0.029199793459739706 -0.10198017458156522
0.0026572361369983943 0.029785143927834816 -0.10333934343971886
0.002703078927872171 0.030327748609854363 -0.10463321351423636
0.0027464329900004744 0.03082008636040641 -0.10586452227816802
0.0027864017842759935 0.0312634511362519 -0.10703279876976843
0.0028221433614242725 0.031668382681976276 -0.10813420683573172
0.0028529549202113143 0.03205242732675405 -0.10916236013451769
0.002878337166053322 0.03243714326738734 -0.11010941212418596
0.0028980365508205295 0.03284905672508972 -0.11096570804978721
0.0029120651374179955 0.03332088315840391 -0.11171934045821152
0.002920699186668212 0.033885950576404526 -0.11235817894618838
0.0029244586304951574 0.034569319737481154 -0.11287310214361584
0.002924070395798875 0.03537959989113499 -0.1132609765399361
0.0029204190990956736 0.036303787312639856 -0.11352653510388405
0.0029144889643634465 0.0373061274950433 -0.11368279141173132
0.002907300946956263 0.03833100839622969 -0.11374998659147467
0.006212993241944028 0.008359290102243226 -0.0035979365234371195
0.0072288922610571306 0.012642366870569244 -0.006441237283120659
0.007974780507892725 0.015481265539741308 -0.009729318906467457
0.008270023946844132 0.017404917120131622 -0.013269666249721685
0.008140225139500825 0.01865898116643968 -0.016972866547209635
0.007751519283975376 0.019604777591506955 -0.02070741010560936
0.007318662739924205 0.020683017108239093 -0.02431289134350096
0.0069707766105224795 0.0217591125707039 -0.027838295975918602
0.006702226685381192 0.022555228317047128 -0.03138474791379488
0.006460614097576536 0.02335441830095516 -0.034849223943296585
0.006208498480286784 0.024089164578809857 -0.03825629858617958
0.005928720355726676 0.02465621695047349 -0.041643551841976024
0.00562110152420414 0.02514953193120946 -0.04497678633581467
0.005297776270156929 0.025665427203669322 -0.04822094529817685
0.004977662142563614 0.02620815533174013 -0.05137448092238836
0.004680078492205027 0.026734162441464676 -0.05445324552215661
0.0044193472589770496 0.027202263748077393 -0.05747222913324093
0.0042022226504668725 0.027607688166252732 -0.06043316828868493
0.004028605706719037 0.027988447428734676 -0.06332222784921698
0.003894567528214928 0.028395715196302136 -0.06612078212553507
0.003794542923454683 0.028862951337633117 -0.06881665272139799
0.0037223892098821663 0.029391834693990468 -0.07140922858855796
0.0036720478837599236 0.029963075257619154 -0.0739055307156566
0.0036379885391020494 0.030553292496118416 -0.0763140689205491
0.003615480687410345 0.031143988626072688 -0.07864157584579859
0.003600729157216099 0.03172304232028226 -0.0808924632937056
0.0035909263662617956 0.03228439369593838 -0.08306893688123564
0.003584242976167935 0.03282740427426392 -0.0851712289956588
0.00357976601221264 0.03335600767447401 -0.08719790791666782
0.003577378730160166 0.03387760573393763 -0.08914627959578153
0.0035774796054096774 0.03440070632297408 -0.09101324742144672
0.003580588564800478 0.034931695851306246 -0.0927964869306204
0.0035870678637920984 0.035472809807260114 -0.09449518447209287
0.0035969747054953923 0.0360214045872162 -0.09611030223889284
0.0036100119296844893 0.03657016821572967 -0.09764450157243591
0.0036255480079795204 0.037107961887537275 -0.09910183666628317
0.0036426825552804717 0.037621047972401796 -0.10048730760893033
0.0036603380175139954 0.038095299754363626 -0.10180605610449464
0.003677362157174432 0.03852148133198522 -0.10306144374618595
0.0036926294639041822 0.03889961275509376 -0.10425346323646399
0.0037051326977571345 0.03923938277161306 -0.10537858815947719
0.003714058455611533 0.03955788229053272 -0.10643059793307677
0.003718842962038476 0.03987657432439171 -0.10740168065956085
0.003719206248598144 0.040222208242045636 -0.10828210036488056
0.003715164522496519 0.04062799398602701 -0.10905976961847243
0.0037070218583473346 0.04112797477447734 -0.1097222977022543
0.003695343396461056 0.04174809452975399 -0.110260241800728
0.003680913018392471 0.04249796010779157 -0.11067010530428839
0.0036646790161518838 0.04336562693517937 -0.11095623568211803
0.003647691596346039 0.04431641019837246 -0.11113125717392831
0.0036310361855396924 0.0452957301696154 -0.11121503517601657
0.005410766489344848 0.0065948844036113445 -0.006441234286124425
0.005892211109850776 0.0093788921381727 -0.009789723064504536
0.006132458642509649 0.011287870885110128 -0.013375839371091922
0.006047255650667177 0.012621630899715618 -0.017090461197032544
0.005720055990603616 0.013618601020698506 -0.020846807542045556
0.005325630843128663 0.01463280034047876 -0.024516025994128148
0.005016871435172548 0.01578496135634231 -0.028054173517959625
0.004834968294868498 0.016847248303646246 -0.03154417555017126
0.004732241848104854 0.017807237861269396 -0.034990553809861935
0.00464908530328423 0.01876138994516179 -0.038358199758826
0.004547585503985086 0.019615405181623274 -0.04168143556220022
0.004411660012619469 0.020357601827734603 -0.044964513026691605
0.004242349868979272 0.021077594490628612 -0.0481748151027483
0.00405227310746894 0.02182132504872454 -0.05129562031411947
0.003859297849485217 0.022565716063612566 -0.05433532816146935
0.0036804214720396232 0.02326565866922155 -0.057310356929349375
0.003527506244425096 0.023895953422408262 -0.06022987846498375
0.003405829147614405 0.02447144608742852 -0.06308848935207842
0.003315379723667389 0.025035406808690132 -0.06587044054603655
0.003253134023982613 0.0256292889758902 -0.06856064424689896
0.003214621311891553 0.026270220663718327 -0.07115286634530835
0.0031948391851961662 0.026949319844593696 -0.07365033963492405
0.0031888698585714084 0.027645483274748694 -0.07606074506832396
0.0031922930777549615 0.02833825929868134 -0.07839152643935222
0.003201436081938149 0.029013031459572555 -0.08064800370322148
0.0032135028026517493 0.02966156147941885 -0.08283317534790657
0.003226618152360912 0.03028146928772401 -0.08494790764822358
0.0032398057236901635 0.03087544961706661 -0.08699121980172461
0.003252904392775423 0.031450260158259455 -0.08896065221010141
0.003266372004343082 0.03201495675691157 -0.0908529088151062
0.0032809500730880004 0.032578070411703054 -0.09266488458715084
0.0032973286136308236 0.03314495428751014 -0.0943946311335613
0.0033159342695244357 0.033716384077730914 -0.09604186612502971
0.0033368336138182735 0.03428828220226165 -0.0976080736793417
0.0033597203855484335 0.03485223060586994 -0.09909631771803225
0.0033839603409402744 0.03539649587092397 -0.10051086885586558
0.003408672097906746 0.035907741964748184 -0.10185658101177877
0.0034328265552422406 0.03637477227866342 -0.10313752941805578
0.0034553512046890385 0.036793352469736904 -0.1043552552494858
0.003475228953835527 0.03716860254979358 -0.10550789497416548
0.0034915839677176984 0.03751407564939596 -0.10659051565598891
0.0035037495424018335 0.03784911755486434 -0.10759607600457706
0.0035113151685979642 0.03819781846147364 -0.10851580790591218
0.003514151750190315 0.03859006832096395 -0.10933883230725722
0.003512415433327221 0.03905934250204019 -0.11005296517082255
0.0035065316976985676 0.03963543477832246 -0.1106473624498439
0.0034971622838568268 0.04033588544265661 -0.11111563999982516
0.003485158199815951 0.04115926854158596 -0.11145831682537995
0.0034715024876191118 0.042082003276042335 -0.11168397563546931
0.003457246657122113 0.04305919462440457 -0.11180895688163006

CELLS 100 350
4 0 51 52 1
4 1 52 53 2
4 2 53 54 3
4 3 54 55 4
4 4 55 56 5
4 5 56 57 6
4 6 57 58 7
4 7 58 59 8
4 8 59 60 9
4 9 60 61 10
4 10 61 62 11
4 11 62 63 12
4 12 63 64 13
4 13 64 65 14
4 14 65 66 15
4 15 66 67 16
4 16 67 68 17
4 17 68 69 18
4 18 69 70 19
4 19 70 71 20
4 20 71 72 21
4 21 72 73 22
4 22 73 74 23
4 23 74 75 24
4 24 75 76 25
4 25 76 77 26
4 26 77 78 27
4 27 78 79 28
4 28 79 80 29
4 29 80 81 30
4 30 81 82 31
4 31 82 83 32
4 32 83 84 33
4 33 84 85 34
4 34 85 86 35
4 35 86 87 36
4 36 87 88 37
4 37 88 89 38
4 38 89 90 39
4 39 90 91 40
4 40 91 92 41
4 41 92 93 42
4 42 93 94 43
4 43 94 95 44
4 44 95 96 45
4 45 96 97 46
4 46 97 98 47
4 47 98 99 48
4 48 99 100 49
4 49 100 101 50
1 102
1 103
1 104
1 105
1 106
1 107
1 108
1 109
1 110
1 111
1 112
1 113
1 114
1 115
1 116
1 117
1 118
1 119
1 120
1 121
1 122
1 123
1 124
1 125
1 126
1 127
1 128
1 129
1 130
1 131
1 132
1 133
1 134
1 135
1 136
1 137
1 138
1 139
1 140
1 141
1 142
1 143
1 144
1 145
1 146
1 147
1 148
1 149
1 150
1 151

CELL_TYPES 100
9
9
9
9
9
9
9
9
9
9
9
9
9
9
9
9
9
9
9
9
9
9
9
9
9
9
9
9
9
9
9
9
9
9
9
9
9
9
9
9
9
9
9
9
9
9
9
9
9
9
1
1
1
1
1
1
1
1
1
1
1
1
1
1
1
1
1
1
1
1
1
1
1
1
1
1
1
1
1
1
1
1
1
1
1
1
1
1
1
1
1
1
1
1
1
1
1
1
1
1

CELL_DATA 100

VECTORS S float
6.1896535832999994e-21 1.0025027517699999e-20 -2.9111539002539996e-20
6.052726329825699e-19 -4.0774156804732195e-18 7.95873821890882e-18
-4.751333172984599e-19 -4.07382534907671e-18 8.79848596622426e-18
1.1771631370069999e-20 5.407605648703e-19 -1.12941466614998e-18
2.2346881218684e-19 1.2349080162817639e-17 -2.568706621569434e-17
2.981016606734e-20 2.25442288499951e-18 -4.6724972797030796e-18
-5.176566703079e-20 -4.16359922635458e-18 8.59591832766734e-18
3.8755637252239e-19 3.5624279614785267e-17 -7.340626094354243e-17
8.4052775599917e-19 8.67088772491628e-17 -1.7832355088677603e-16
-7.9072961457986e-19 -9.210367520734064e-17 1.890605145849612e-16
-4.2705096161882e-19 -5.79409043318813e-17 1.1869916483623197e-16
3.0650248973999995e-20 4.65480964066989e-18 -9.516841994032079e-18
3.7425947085349995e-20 5.964147054500499e-18 -1.217023031698309e-17
2.1791103538319e-19 3.589432201936778e-17 -7.31083501375065e-17
5.178485291952e-20 8.58014893103692e-18 -1.74450907708856e-17
-1.3681462720749e-19 -2.2988223964426798e-17 4.666404103643656e-17
3.46054702697e-21 5.8660064813683e-19 -1.1895112253496e-18
-4.7110718910757e-19 -8.16927854172283e-17 1.6545551327988007e-16
4.484530855437e-20 8.06799884618888e-18 -1.632565425703295e-17
-3.265124867228e-19 -5.747640837983581e-17 1.1624233083126777e-16
2.297531246738e-19 4.173661329107156e-17 -8.439124353738265e-17
2.3621549772003e-19 4.351382428340941e-17 -8.799331667933038e-17
-2.3601449954166e-19 -4.4850939252967817e-17 9.072911887124583e-17
2.9538466678644997e-19 5.734055586203825e-17 -1.1611286157193828e-16
-1.2495093707739e-19 -2.4829782534778517e-17 5.0315204624145845e-17
1.0434296364769999e-19 2.118331614797344e-17 -4.296259186809284e-17
2.1794264657402e-19 4.578152201967025e-17 -9.293929419540651e-17
-6.42838067212e-21 -1.4137885531168399e-18 2.87300722153342e-18
9.594630006082e-20 2.2116177766948078e-17 -4.4991520377680436e-17
3.934649931089e-20 9.46458769599373e-18 -1.926005280499534e-17
-4.5719116446e-22 -1.1448324512102e-19 2.3321082501984e-19
-2.1986667730579998e-20 -5.8926714661815294e-18 1.20214377323764e-17
4.493506667101e-20 1.2847919895686399e-17 -2.62416387006677e-17
-4.693538075907e-20 -1.407918287244716e-17 2.87927301447803e-17
4.130512833015e-20 1.308752743870049e-17 -2.6799545478833877e-17
-2.3324773649189998e-20 -7.82101128966256e-18 1.603833255675657e-17
3.76845852291e-21 1.32277088822344e-18 -2.7165884899695e-18
-2.6256966688399997e-20 -9.64358851971594e-18 1.9834745565575258e-17
6.833701976464e-20 2.658749357286786e-17 -5.4765655790532674e-17
-6.05872414011e-20 -2.46094146848453e-17 5.076432168276109e-17
8.183694939776e-20 3.609729810613314e-17 -7.461587431161619e-17
-4.19195635371e-21 -1.89029685913817e-18 3.91257625086492e-18
-3.0442643201839996e-20 -1.170874902981686e-17 2.42649588018867e-17
7.188637210535e-20 2.5103328293079948e-17 -5.2082280357710915e-17
3.893192055361e-20 1.0331488370595409e-17 -2.1462551137201378e-17
-1.8473852291052999e-19 -3.4240147059659557e-17 7.118814937181153e-17
3.41465705604e-19 4.8749608189243316e-17 -1.0142375931619442e-16
-3.8186826989294e-19 -4.033688597181508e-17 8.39677115474595e-17
-4.3639811768501e-19 -3.277497351658712e-17 6.825611008288396e-17
-5.0047442382848e-19 -1.881962273584992e-17 3.920258243137906e-17
6.1896535832999994e-21 1.0025027517699999e-20 -2.9111539002539996e-20
6.052726329825699e-19 -4.0774156804732195e-18 7.95873821890882e-18
-4.751333172984599e-19 -4.07382534907671e-18 8.79848596622426e-18
1.1771631370069999e-20 5.407605648703e-19 -1.12941466614998e-18
2.2346881218684e-19 1.2349080162817639e-17 -2.568706621569434e-17
2.981016606734e-20 2.25442288499951e-18 -4.6724972797030796e-18
-5.176566703079e-20 -4.16359922635458e-18 8.59591832766734e-18
3.8755637252239e-19 3.5624279614785267e-17 -7.340626094354243e-17
8.4052775599917e-19 8.67088772491628e-17 -1.7832355088677603e-16
-7.9072961457986e-19 -9.210367520734064e-17 1.890605145849612e-16
-4.2705096161882e-19 -5.79409043318813e-17 1.1869916483623197e-16
3.0650248973999995e-20 4.65480964066989e-18 -9.516841994032079e-18
3.7425947085349995e-20 5.964147054500499e-18 -1.217023031698309e-17
2.1791103538319e-19 3.589432201936778e-17 -7.31083501375065e-17
5.178485291952e-20 8.58014893103692e-18 -1.74450907708856e-17
-1.3681462720749e-19 -2.2988223964426798e-17 4.666404103643656e-17
3.46054702697e-21 5.8660064813683e-19 -1.1895112253496e-18
-4.7110718910757e-19 -8.16927854172283e-17 1.6545551327988007e-16
4.484530855437e-20 8.06799884618888e-18 -1.632565425703295e-17
-3.265124867228e-19 -5.747640837983581e-17 1.1624233083126777e-16
2.297531246738e-19 4.173661329107156e-17 -8.439124353738265e-17
2.3621549772003e-19 4.351382428340941e-17 -8.799331667933038e-17
-2.3601449954166e-19 -4.4850939252967817e-17 9.072911887124583e-17
2.9538466678644997e-19 5.734055586203825e-17 -1.1611286157193828e-16
-1.2495093707739e-19 -2.4829782534778517e-17 5.0315204624145845e-17
1.0434296364769999e-19 2.118331614797344e-17 -4.296259186809284e-17
2.1794264657402e-19 4.578152201967025e-17 -9.293929419540651e-17
-6.42838067212e-21 -1.4137885531168399e-18 2.87300722153342e-18
9.594630006082e-20 2.2116177766948078e-17 -4.4991520377680436e-17
3.934649931089e-20 9.46458769599373e-18 -1.926005280499534e-17
-4.5719116446e-22 -1.1448324512102e-19 2.3321082501984e-19
-2.1986667730579998e-20 -5.8926714661815294e-18 1.20214377323764e-17
4.493506667101e-20 1.2847919895686399e-17 -2.62416387006677e-17
-4.693538075907e-20 -1.407918287244716e-17 2.87927301447803e-17
4.130512833015e-20 1.308752743870049e-17 -2.6799545478833877e-17
-2.3324773649189998e-20 -7.82101128966256e-18 1.603833255675657e-17
3.76845852291e-21 1.32277088822344e-18 -2.7165884899695e-18
-2.6256966688399997e-20 -9.64358851971594e-18 1.9834745565575258e-17
6.833701976464e-20 2.658749357286786e-17 -5.4765655790532674e-17
-6.05872414011e-20 -2.46094146848453e-17 5.076432168276109e-17
8.183694939776e-20 3.609729810613314e-17 -7.461587431161619e-17
-4.19195635371e-21 -1.89029685913817e-18 3.91257625086492e-18
-3.0442643201839996e-20 -1.170874902981686e-17 2.42649588018867e-17
7.188637210535e-20 2.5103328293079948e-17 -5.2082280357710915e-17
3.893192055361e-20 1.0331488370595409e-17 -2.1462551137201378e-17
-1.8473852291052999e-19 -3.4240147059659557e-17 7.118814937181153e-17
3.41465705604e-19 4.8749608189243316e-17 -1.0142375931619442e-16
-3.8186826989294e-19 -4.033688597181508e-17 8.39677115474595e-17
-4.3639811768501e-19 -3.277497351658712e-17 6.825611008288396e-17
-5.0047442382848e-19 -1.881962273584992e-17 3.920258243137906e-17

SCALARS Gamma float
LOOKUP_TABLE default
6.954511722567829e-5
-0.0010888656537771488
0.0023565422272818623
0.026416019929767255
0.049055100232867035
0.11431007661301992
0.1794307791227024
0.24982223849193708
0.30073361011484984
0.34067378604963316
0.3791269950674019
0.4008562578044927
0.3965896733266231
0.3908595968772193
0.3779566010495254
0.3654121059991652
0.3535360027153938
0.339419050139029
0.329884198025797
0.3144305623869379
0.29987814684205877
0.28912521011715425
0.27799323901745143
0.2644177581583053
0.25133495759853414
0.24032779268554058
0.23281207904713
0.22817084047790742
0.22297208747752834
0.21889300363016564
0.2105491790285095
0.2104779013744814
0.20392574084964912
0.1986788131420784
0.19486469045304594
0.19088037564491003
0.1871997976064548
0.18373499709614372
0.1805532644124896
0.17513984058024631
0.17262671615106284
0.165116025957133
0.15399925341481902
0.14587968200857793
0.12735721736994884
0.09248200666306687
0.07249231945923758
0.0549138164997719
0.03960601039755265
0.020554128881293265
6.954511722567829e-5
-0.0010888656537771488
0.0023565422272818623
0.026416019929767255
0.049055100232867035
0.11431007661301992
0.1794307791227024
0.24982223849193708
0.30073361011484984
0.34067378604963316
0.3791269950674019
0.4008562578044927
0.3965896733266231
0.3908595968772193
0.3779566010495254
0.3654121059991652
0.3535360027153938
0.339419050139029
0.329884198025797
0.3144305623869379
0.29987814684205877
0.28912521011715425
0.27799323901745143
0.2644177581583053
0.25133495759853414
0.24032779268554058
0.23281207904713
0.22817084047790742
0.22297208747752834
0.21889300363016564
0.2105491790285095
0.2104779013744814
0.20392574084964912
0.1986788131420784
0.19486469045304594
0.19088037564491003
0.1871997976064548
0.18373499709614372
0.1805532644124896
0.17513984058024631
0.17262671615106284
0.165116025957133
0.15399925341481902
0.14587968200857793
0.12735721736994884
0.09248200666306687
0.07249231945923758
0.0549138164997719
0.03960601039755265
0.020554128881293265

VECTORS Ftot float
0.004429381265675017 0.007723115812240288 0.003601348048065594
0.031556709642276755 0.05215911612891217 0.024322195293507553
0.0059234373230918295 0.09712930761540417 0.04529213997235541
-0.2820138731702386 0.2353464522183914 0.10974385298904493
-0.6595307212630609 0.3972581422588077 0.18524451399970915
-1.8542106208609328 0.7311262109456975 0.3409297512418244
-3.3331560407485963 1.1113405512419225 0.5182266098623041
-5.219559791297626 1.4507355161059827 0.6764890811176614
-6.957648430427287 1.6449232353827112 0.7670403017360525
-8.62875642139776 1.7302759039253852 0.8068409047214664
-10.421719084508569 1.7179991247413644 0.8011161485704796
-11.854307638507871 1.6741090787458535 0.7806498840059979
-12.523037265526554 1.6213293796681114 0.7560383061309306
-13.106083001499933 1.5837071941822431 0.7384947929223425
-13.39118816509503 1.557045774533503 0.7260623687628508
-13.625812453267267 1.5175623754161618 0.7076509573844444
-13.823298088399492 1.498511757923586 0.6987675085550747
-13.87222946822499 1.4396178186126636 0.671304813635476
-14.052420230149762 1.3843491106498182 0.6455325918560693
-13.915317882824736 1.3887270309490456 0.6475740496183912
-13.759865530662733 1.325895284647038 0.618275125142513
-13.721757324077645 1.3059893751795446 0.6089928471152809
-13.619421789508587 1.2638840255917527 0.5893588001532002
-13.349759591592775 1.233735624148539 0.5753003696790985
-13.050149619116569 1.1924877852584932 0.5560661865223265
-12.812055913823013 1.1629511625209474 0.542293033143774
-12.724187373142962 1.1350373813409131 0.5292766232114612
-12.76696313055638 1.1078194005611666 0.51658467033435
-12.755100672550226 1.077020535652024 0.5022229237647355
-12.785661938772638 1.0405261030884045 0.4852052903802987
-12.541368691283887 0.9997474402446109 0.4661898876069171
-12.771246180363168 0.9784452615893322 0.45625651856457466
-12.590540633332543 0.9255843607112937 0.431607075668173
-12.467672951596366 0.8962535567436436 0.41792989715821494
-12.416737285819945 0.8682580143549292 0.4048753613481546
-12.338462112633364 0.8409703888708918 0.3921509326120825
-12.263902134649973 0.8252140475444568 0.3848036299870618
-12.188969504481737 0.811279121283171 0.37830566715559905
-12.119462313981433 0.7888830062185535 0.36786218718804736
-11.885348131351204 0.7680066178072508 0.3581273673972387
-11.83486312182897 0.7431105884684741 0.3465181582589157
-11.426830161037195 0.727614895881104 0.3392923981370094
-10.749601762976216 0.8309689144291892 0.38748716848707515
-10.264312513924562 0.9031804308454614 0.4211599515989681
-9.026314905131184 1.0868301928913056 0.506797242059288
-6.5998532470192695 1.1672263842268402 0.5442866017655423
-5.206650304531151 1.2219759463505842 0.5698167418644768
-3.968465805425244 1.281983252356989 0.5977986082005138
-2.879991621259483 1.3276859437140587 0.6191101231786095
-1.5087601292831871 1.4005085635894832 0.6530678685134302
0.004429381265675017 0.007723115812240288 0.003601348048065594
0.031556709642276755 0.05215911612891217 0.024322195293507553
0.0059234373230918295 0.09712930761540417 0.04529213997235541
-0.2820138731702386 0.2353464522183914 0.10974385298904493
-0.6595307212630609 0.3972581422588077 0.18524451399970915
-1.8542106208609328 0.7311262109456975 0.3409297512418244
-3.3331560407485963 1.1113405512419225 0.5182266098623041
-5.219559791297626 1.4507355161059827 0.6764890811176614
-6.957648430427287 1.6449232353827112 0.7670403017360525
-8.62875642139776 1.7302759039253852 0.8068409047214664
-10.421719084508569 1.7179991247413644 0.8011161485704796
-11.854307638507871 1.6741090787458535 0.7806498840059979
-12.523037265526554 1.6213293796681114 0.7560383061309306
-13.106083001499933 1.5837071941822431 0.7384947929223425
-13.39118816509503 1.557045774533503 0.7260623687628508
-13.625812453267267 1.5175623754161618 0.7076509573844444
-13.823298088399492 1.498511757923586 0.6987675085550747
-13.87222946822499 1.4396178186126636 0.671304813635476
-14.052420230149762 1.3843491106498182 0.6455325918560693
-13.915317882824736 1.3887270309490456 0.6475740496183912
-13.759865530662733 1.325895284647038 0.618275125142513
-13.721757324077645 1.3059893751795446 0.6089928471152809
-13.619421789508587 1.2638840255917527 0.5893588001532002
-13.349759591592775 1.233735624148539 0.5753003696790985
-13.050149619116569 1.1924877852584932 0.5560661865223265
-12.812055913823013 1.1629511625209474 0.542293033143774
-12.724187373142962 1.1350373813409131 0.5292766232114612
-12.76696313055638 1.1078194005611666 0.51658467033435
-12.755100672550226 1.077020535652024 0.5022229237647355
-12.785661938772638 1.0405261030884045 0.4852052903802987
-12.541368691283887 0.9997474402446109 0.4661898876069171
-12.771246180363168 0.9784452615893322 0.45625651856457466
-12.590540633332543 0.9255843607112937 0.431607075668173
-12.467672951596366 0.8962535567436436 0.41792989715821494
-12.416737285819945 0.8682580143549292 0.4048753613481546
-12.338462112633364 0.8409703888708918 0.3921509326120825
-12.263902134649973 0.8252140475444568 0.3848036299870618
-12.188969504481737 0.811279121283171 0.37830566715559905
-12.119462313981433 0.7888830062185535 0.36786218718804736
-11.885348131351204 0.7680066178072508 0.3581273673972387
-11.83486312182897 0.7431105884684741 0.3465181582589157
-11.426830161037195 0.727614895881104 0.3392923981370094
-10.749601762976216 0.8309689144291892 0.38748716848707515
-10.264312513924562 0.9031804308454614 0.4211599515989681
-9.026314905131184 1.0868301928913056 0.506797242059288
-6.5998532470192695 1.1672263842268402 0.5442866017655423
-5.206650304531151 1.2219759463505842 0.5698167418644768
-3.968465805425244 1.281983252356989 0.5977986082005138
-2.879991621259483 1.3276859437140587 0.6191101231786095
-1.5087601292831871 1.4005085635894832 0.6530678685134302

VECTORS D float
0.0047778531595097816 0.007502147110519089 0.0035993455084902854
0.023388227392691696 0.05472219477329964 0.02625653405301257
0.029324937956333258 0.09042462071964269 0.043451494789751195
0.04330385113455192 0.16437284972589458 0.07915260419303367
0.05912602228222515 0.26433989131336577 0.1275960167076403
0.08202932396511187 0.4188004604907314 0.20258944917108235
0.10797348922114774 0.6102590353429163 0.29624099136966375
0.11983452590263702 0.740918165141389 0.36020249745683697
0.1160581714534774 0.7723211170249601 0.3760840714194416
0.10160555611025411 0.7189349747890477 0.350664950219404
0.07602470374889951 0.5673979223656465 0.27723880960865854
0.05527531706505715 0.43337149012295023 0.21214558292677463
0.04547876851858575 0.37406471205877373 0.18345413179949246
0.039539844157648 0.34132283941471786 0.16769860153917404
0.03855351486829051 0.34990492437452564 0.17221078929250624
0.03685517172990706 0.3525870976129385 0.1738039251067331
0.036900986336974605 0.3696353426454457 0.18239090522654985
0.03460279446780655 0.36551813041951536 0.18057117123179006
0.03173060100343607 0.3537600970684538 0.17491237892278763
0.035732535191029535 0.42039637332809976 0.20796675858832014
0.033658540777966935 0.4174472717770062 0.2065447524631423
0.03405697108097784 0.44447488005031077 0.2198899569132671
0.03277575455259863 0.44904153951286063 0.22206399240634045
0.03240548982425058 0.45640930825512865 0.2254731746883275
0.03147125424724124 0.46013744142961877 0.22714893151863116
0.03093334105605198 0.4685430781680332 0.23109694733368827
0.029883907305540573 0.4683999671187403 0.2308020151455783
0.028450260595557025 0.46154842672584456 0.22718869852719614
0.027005750190663654 0.45430404337917807 0.2233767607998868
0.02523483959363499 0.4449179227952319 0.21868878777534276
0.023947399401603935 0.4443901069110734 0.21819814785161326
0.022638817246051473 0.448314894354536 0.2197965165899869
0.02063079084002257 0.43894704494536574 0.21494402777996754
0.019563770549480868 0.45320645166545837 0.22164257133315313
0.01827417096764155 0.4718656422146332 0.23046321295706293
0.01687862975987034 0.49022010115902986 0.23907788557405887
0.015618752627628015 0.5208719934507726 0.2536465020717166
0.014102414347543005 0.5534213816930715 0.26909033705719676
0.012116362250334568 0.5766534067665355 0.279967372269004
0.010029266965245172 0.6019587869585736 0.29182820859200975
0.007575381177082756 0.6209441851448061 0.3004056108880638
0.005401196670435087 0.6452288797768007 0.31173750701430986
0.0038105050819659224 0.7832540329614524 0.37795410967980253
0.0015020232206128226 0.8834754756093152 0.42583164035409166
-0.001388080381083391 1.0897651534964874 0.524580787131071
-0.004433729943528858 1.1806554723300884 0.5678613403407343
-0.007345240279062969 1.240157092086476 0.596060179510813
-0.01014670017262748 1.3000590082022145 0.624483581858796
-0.012657246985449401 1.3425020633132294 0.64455688902974
-0.015205383229490131 1.4061971392869468 0.6748659937010735
0.0047778531595097816 0.007502147110519089 0.0035993455084902854
0.023388227392691696 0.05472219477329964 0.02625653405301257
0.029324937956333258 0.09042462071964269 0.043451494789751195
0.04330385113455192 0.16437284972589458 0.07915260419303367
0.05912602228222515 0.26433989131336577 0.1275960167076403
0.08202932396511187 0.4188004604907314 0.20258944917108235
0.10797348922114774 0.6102590353429163 0.29624099136966375
0.11983452590263702 0.740918165141389 0.36020249745683697
0.1160581714534774 0.7723211170249601 0.3760840714194416
0.10160555611025411 0.7189349747890477 0.350664950219404
0.07602470374889951 0.5673979223656465 0.27723880960865854
0.05527531706505715 0.43337149012295023 0.21214558292677463
0.04547876851858575 0.37406471205877373 0.18345413179949246
0.039539844157648 0.34132283941471786 0.16769860153917404
0.03855351486829051 0.34990492437452564 0.17221078929250624
0.03685517172990706 0.3525870976129385 0.1738039251067331
0.036900986336974605 0.3696353426454457 0.18239090522654985
0.03460279446780655 0.36551813041951536 0.18057117123179006
0.03173060100343607 0.3537600970684538 0.17491237892278763
0.035732535191029535 0.42039637332809976 0.20796675858832014
0.033658540777966935 0.4174472717770062 0.2065447524631423
0.03405697108097784 0.44447488005031077 0.2198899569132671
0.03277575455259863 0.44904153951286063 0.22206399240634045
0.03240548982425058 0.45640930825512865 0.2254731746883275
0.03147125424724124 0.46013744142961877 0.22714893151863116
0.03093334105605198 0.4685430781680332 0.23109694733368827
0.029883907305540573 0.4683999671187403 0.2308020151455783
0.028450260595557025 0.46154842672584456 0.22718869852719614