# vtk DataFile Version 4.0
[MyVLM domain - lattices] 
ASCII
DATASET UNSTRUCTURED_GRID
POINTS 152 float
0.0018916144324157278 -0.007529301875155234 0.00676606502416392
0.0010688609733395774 -0.011778568125731644 0.007042388542775264
0.00045780959861706216 -0.015952893620675278 0.007331257357713921
-0.00013255382275044122 -0.02002848082880603 0.0074977089630463515
-0.0007201482309470062 -0.024015321367174835 0.007598408634902134
-0.0011946371146526612 -0.027887440486406914 0.007486046249382929
-0.0014108622120167862 -0.03159208007084702 0.006861415664335874
-0.0013224843579428829 -0.03517322257239492 0.0059739537596023165
-0.0010167791708201568 -0.03869506635642122 0.005187747557557729
-0.0006138083932142036 -0.04211467185723703 0.0042592746799684465
-0.00020084691410191335 -0.045451866398942053 0.003300981469532776
0.0001698744379422134 -0.048731559184419036 0.0024541350357008165
0.0004739400232210948 -0.05194095839085254 0.0016461893462995764
0.0007082255455298663 -0.05506585871238892 0.0007965821084992009
0.0008836440760600275 -0.05810830161815576 -8.310893095178629e-5
0.001017516815515788 -0.06107857417936259 -0.0009345428921255912
0.0011275777072549662 -0.06398609836338749 -0.001704285142725844
0.0012277625198140337 -0.06683322864922675 -0.0023789827688263437
0.00132638558954348 -0.06961409133717986 -0.002991947176752522
0.0014271324949937316 -0.07232003451473197 -0.0035922458006545878
0.0015306083418583354 -0.07494534681234755 -0.004212269426744694
0.0016355657532635378 -0.07748989859081891 -0.004852753275504363
0.0017398364473795213 -0.07995718691211869 -0.005493864522946154
0.0018410131526058282 -0.08235125689755178 -0.006112662146155439
0.001936923789896676 -0.0846750815313553 -0.006692285513678346
0.0020259353317291845 -0.08693032137684586 -0.0072233171029669665
0.0021071205190511294 -0.08911741559321018 -0.0077032663185098455
0.002180316672546981 -0.09123573015369628 -0.008135728904698505
0.0022461021518325993 -0.09328374210545334 -0.008529341956347998
0.0023056987632523672 -0.09525926835815866 -0.00889648639391605
0.0023607022647827588 -0.09715992436654737 -0.009250685645611323
0.0024126938092907785 -0.09898374001230145 -0.009603112807633336
0.0024629658139780817 -0.10072955140173724 -0.009960368649070184
0.0025123806343549317 -0.10239714943979451 -0.010323639006935467
0.0025613283706516186 -0.10398725212235646 -0.01068885192423038
0.0026097549007438213 -0.10550135750400078 -0.011047511511263647
0.0026572361369983943 -0.10694152257524445 -0.01138795199511304
0.002703078927872171 -0.10830995817024604 -0.011697635112208891
0.0027464329900004744 -0.10960805414049786 -0.011968678623051093
0.0027864017842759935 -0.11083557137245513 -0.01220243860793875
0.0028221433614242725 -0.11199056220004086 -0.012409960830085161
0.0028529549202113143 -0.11306978419267882 -0.012609634027068712
0.002878337166053322 -0.11406925355662018 -0.012824051415950048
0.0028980365508205295 -0.11498406844431155 -0.013081012755641153
0.0029120651374179955 -0.11580818328336917 -0.013414804190891458
0.002920699186668212 -0.11653543930664617 -0.013860353825852389
0.0029244586304951574 -0.11716120547317334 -0.014443925598978419
0.002924070395798875 -0.11768389085794612 -0.015174542094323989
0.0029204190990956736 -0.11810589845216787 -0.016038575271564954
0.0029144889643634465 -0.11843383542166962 -0.01699855403124493
0.002907300946956263 -0.11867797845646257 -0.017996196368137016
0.006212993241944028 -0.004994851275970461 -0.007607518581711436
0.0072288922610571306 -0.00853870438387974 -0.011331791794427448
0.007974780507892725 -0.012269802239571503 -0.013556591831929934
0.008270023946844132 -0.016090402342965403 -0.014836243957928503
0.008140225139500825 -0.019955108643207747 -0.015428201970312168
0.007751519283975376 -0.023797151919138507 -0.015711132939155797
0.007318662739924205 -0.027535092122723297 -0.016146906328265598
0.0069707766105224795 -0.03119379995328609 -0.01659447339272436
0.006702226685381192 -0.03482461736595634 -0.01676265943582273
0.006460614097576536 -0.03837523810424994 -0.016948107979011355
0.006208498480286784 -0.041858138979849524 -0.017080059507027713
0.005928720355726676 -0.045292399858554884 -0.017050306723840614
0.00562110152420414 -0.04866065827811558 -0.01695731704595485
0.005297776270156929 -0.05194511545018361 -0.01690203241813966
0.004977662142563614 -0.05514498553271545 -0.016888909572089536
0.004680078492205027 -0.05826831695631034 -0.016872303589670623
0.0044193472589770496 -0.06132272036157984 -0.01680905238314687
0.0042022226504668725 -0.0643090774094564 -0.016694155804900912
0.004028605706719037 -0.06722036381564227 -0.01656745055076675
0.003894567528214928 -0.07004712306984644 -0.01648256715563454
0.003794542923454683 -0.07278317203825219 -0.016474571913907363
0.0037223892098821663 -0.07542820048353356 -0.01654522426889163
0.0036720478837599236 -0.07798577305504478 -0.016674308089511484
0.0036379885391020494 -0.08046021030054207 -0.016837320331826274
0.003615480687410345 -0.0828549304722389 -0.017014875124202834
0.003600729157216099 -0.08517217350086642 -0.017194269188208378
0.0035909263662617956 -0.08741305920750586 -0.017369151702903814
0.003584242976167935 -0.08957770557826636 -0.017538853535813335
0.00357976601221264 -0.09166538570969752 -0.01770749716125967
0.003577378730160166 -0.09367473179753864 -0.017882839782679627
0.0035774796054096774 -0.09560417165090078 -0.018073797737678445
0.003580588564800478 -0.09745252510896785 -0.018287064050836594
0.0035870678637920984 -0.09921937907019429 -0.018524981537439103
0.0035969747054953923 -0.10090522205278367 -0.018784779673079597
0.0036100119296844893 -0.10251140525518432 -0.019058795430563227
0.0036255480079795204 -0.10403998704541209 -0.01933535522478363
0.0036426825552804717 -0.10549350603492719 -0.019600061874719747
0.0036603380175139954 -0.1068745727353251 -0.019838110433419882
0.003677362157174432 -0.10818489387220766 -0.020039821579007328
0.0036926294639041822 -0.10942446574051654 -0.020205216323911923
0.0037051326977571345 -0.11059149793200168 -0.020344448577892346
0.003714058455611533 -0.11168283217433535 -0.02047542979338173
0.003718842962038476 -0.11269450226310972 -0.020620653433331516
0.003719206248598144 -0.11362156511475383 -0.020808153117730266
0.003715164522496519 -0.11445788377993592 -0.021072733215751135
0.0037070218583473346 -0.11519716732621552 -0.0214500713781723
0.003695343396461056 -0.11583462151051864 -0.021967357108578164
0.003680913018392471 -0.11636847105762305 -0.02263465849306113
0.0036646790161518838 -0.11680092323547991 -0.023439457493018897
0.003647691596346039 -0.11713838753856815 -0.024345404058940322
0.0036310361855396924 -0.11739094989291571 -0.025295298061908885
0.005410766489344848 -0.007488567122554686 -0.005376184695184684
0.005892211109850776 -0.011269622702095082 -0.007536438122322872
0.006132458642509649 -0.0151327485246365 -0.008793692631101878
0.006047255650667177 -0.019022541894312538 -0.009462152523346694
0.005720055990603616 -0.022894942942577563 -0.009791693730514852
0.005325630843128663 -0.026684531585354918 -0.010153331986068173
0.005016871435172548 -0.030368997358908766 -0.010673596217378959
0.004834968294868498 -0.03399044261081793 -0.01111371214606015
0.004732241848104854 -0.03755116307803464 -0.01146066000087201
0.00464908530328423 -0.04103333368855969 -0.011815530788576998
0.004547585503985086 -0.044454380262321784 -0.01207949777342142
0.004411660012619469 -0.04781646149816037 -0.01224031836592325
0.004242349868979272 -0.05110301728601738 -0.012391909617185594
0.00405227310746894 -0.05430555790990523 -0.012582419099142525
0.003859297849485217 -0.05742834790807446 -0.012787661413544728
0.0036804214720396232 -0.06047972306205258 -0.012960361994162992
0.003527506244425096 -0.06346434004071537 -0.013074111559461938
0.003405829147614405 -0.06637945545771284 -0.013144468626572732
0.003315379723667389 -0.06921707331354725 -0.013216780762076372
0.003253134023982613 -0.07196953333142192 -0.013334491554503124
0.003214621311891553 -0.07463367037106547 -0.013515551406330756
0.0031948391851961662 -0.07721112576483408 -0.01375065185920748
0.0031888698585714084 -0.07970579923455388 -0.014017676491639363
0.0031922930777549615 -0.08212147009340626 -0.014295191753490139
0.003201436081938149 -0.08446083935343965 -0.014567879444234868
0.0032135028026517493 -0.08672542938689662 -0.014827105761851674
0.003226618152360912 -0.0889156800130279 -0.015070376367419975
0.0032398057236901635 -0.09103109326538017 -0.015300515369033192
0.003252904392775423 -0.09307042037316507 -0.015524604897760242
0.003266372004343082 -0.09503198788375304 -0.0157521355750752
0.0032809500730880004 -0.09691421933230684 -0.01599204797734872
0.0032973286136308236 -0.09871612549394064 -0.016249952277691326
0.0033159342695244357 -0.10043756302630821 -0.01652666141094522
0.0033368336138182735 -0.10207928543575685 -0.016817902030261792
0.0033597203855484335 -0.10364284831601832 -0.017114851925191826
0.0033839603409402744 -0.10513041991503287 -0.017405214350610855
0.003408672097906746 -0.10654446463203093 -0.0176750130039676
0.0034328265552422406 -0.10788705151666776 -0.017912513721567703
0.0034553512046890385 -0.1091589630438907 -0.01811327886746845
0.003475228953835527 -0.11035925307375634 -0.01828267426792959
0.0034915839677176984 -0.11148541708896635 -0.018434903746372015
0.0035037495424018335 -0.1125338801327043 -0.018590241890394814
0.0035113151685979642 -0.1135001905168153 -0.018773935478097067
0.003514151750190315 -0.11437882480146876 -0.019017309493372103
0.003512415433327221 -0.11516359698855871 -0.01935544647481427
0.0035065316976985676 -0.11584900141125273 -0.019819570610635277
0.0034971622838568268 -0.11643179675444307 -0.020428064312277536
0.003485158199815951 -0.11691224652367785 -0.02117943316551613
0.0034715024876191118 -0.1172947082744977 -0.022048964244835944
0.003457246657122113 -0.11758747827157297 -0.022989607095241196

CELLS 100 350
4 0 51 52 1
4 1 52 53 2
4 2 53 54 3
4 3 54 55 4
4 4 55 56 5
4 5 56 57 6
4 6 57 58 7
4 7 58 59 8
4 8 59 60 9
4 9 60 61 10
4 10 61 62 11
4 11 62 63 12
4 12 63 64 13
4 13 64 65 14
4 14 65 66 15
4 15 66 67 16
4 16 67 68 17
4 17 68 69 18
4 18 69 70 19
4 19 70 71 20
4 20 71 72 21
4 21 72 73 22
4 22 73 74 23
4 23 74 75 24
4 24 75 76 25
4 25 76 77 26
4 26 77 78 27
4 27 78 79 28
4 28 79 80 29
4 29 80 81 30
4 30 81 82 31
4 31 82 83 32
4 32 83 84 33
4 33 84 85 34
4 34 85 86 35
4 35 86 87 36
4 36 87 88 37
4 37 88 89 38
4 38 89 90 39
4 39 90 91 40
4 40 91 92 41
4 41 92 93 42
4 42 93 94 43
4 43 94 95 44
4 44 95 96 45
4 45 96 97 46
4 46 97 98 47
4 47 98 99 48
4 48 99 100 49
4 49 100 101 50
1 102
1 103
1 104
1 105
1 106
1 107
1 108
1 109
1 110
1 111
1 112
1 113
1 114
1 115
1 116
1 117
1 118
1 119
1 120
1 121
1 122
1 123
1 124
1 125
1 126
1 127
1 128
1 129
1 130
1 131
1 132
1 133
1 134
1 135
1 136
1 137
1 138
1 139
1 140
1 141
1 142
1 143
1 144
1 145
1 146
1 147
1 148
1 149
1 150
1 151

CELL_TYPES 100
9
9
9
9
9
9
9
9
9
9
9
9
9
9
9
9
9
9
9
9
9
9
9
9
9
9
9
9
9
9
9
9
9
9
9
9
9
9
9
9
9
9
9
9
9
9
9
9
9
9
1
1
1
1
1
1
1
1
1
1
1
1
1
1
1
1
1
1
1
1
1
1
1
1
1
1
1
1
1
1
1
1
1
1
1
1
1
1
1
1
1
1
1
1
1
1
1
1
1
1

CELL_DATA 100

VECTORS S float
-1.1658544918e-22 -3.2629240721399997e-21 -8.021490951e-22
-1.0939290960725e-19 5.0622965399231e-19 7.367639606315999e-20
8.486990590848999e-20 3.1721589339747e-19 1.0286429265584999e-19
7.469101544073e-20 3.2308772846054e-18 8.068606430945199e-19
3.912645642823e-20 5.0465024522272696e-18 1.2751127715909e-18
-8.864190197875999e-20 -2.8747149297714786e-17 -7.47337709313431e-18
1.4428448078999998e-21 2.340016566833764e-17 6.2655470985345e-18
2.3208582089099997e-21 -1.04984139945311e-18 -2.8926492750522997e-19
-1.223411752469e-19 2.99274818694203e-17 8.472400212553189e-18
-3.0526762561971e-19 5.367645177846704e-17 1.557668615572432e-17
-3.2122656164814997e-19 4.5515389187785745e-17 1.35079303022965e-17
-7.2844795820551e-19 8.870554262990795e-17 2.6855262761566838e-17
1.2205406807083e-19 -1.3588595687238179e-17 -4.18124036862146e-18
-1.9657212996584e-19 1.975713358849625e-17 6.180047991007439e-18
-1.1311481290981e-19 1.080966357626372e-17 3.42801163287483e-18
-6.328169860806e-19 5.879520998559344e-17 1.8861816340311218e-17
5.3124787538375e-19 -4.836649666282208e-17 -1.5669053124298498e-17
8.618960402667e-20 -7.83583228504944e-18 -2.56023487028339e-18
1.6426900400021e-19 -1.483161117282958e-17 -4.88177143247072e-18
-5.6552064829564e-19 5.0214744167754995e-17 1.6633014441811728e-17
9.7592114776102e-19 -8.778189263954978e-17 -2.92385164589636e-17
-1.937815070283e-20 1.80936205941452e-18 6.0551100859714e-19
5.515706116945999e-20 -5.1691302402368e-18 -1.7412124701550597e-18
5.941161040336e-20 -5.67320527455202e-18 -1.9178165730913297e-18
5.9788689547735e-19 -5.898201849931234e-17 -1.998315898336959e-17
-4.8925093520382e-19 5.0339953802090345e-17 1.706940457074e-17
7.814250736211199e-19 -8.522255333225987e-17 -2.888118398453892e-17
6.354711912875e-20 -7.47503964276575e-18 -2.52760443955265e-18
-3.4420796325333997e-19 4.427746466316894e-17 1.492724555763461e-17
-6.7436751719531e-19 9.564168871624103e-17 3.216065526332926e-17
1.6631747705e-20 -2.6226049726719297e-18 -8.7739255134566e-19
2.8284813188608e-19 -5.0666398152662055e-17 -1.685441602540404e-17
2.4669579946892e-19 -5.028790394845112e-17 -1.661771550665834e-17
1.5938804825313998e-19 -3.616585521612198e-17 -1.186758348314293e-17
3.3531522597539e-19 -8.398345849685873e-17 -2.7360254016001438e-17
1.624603063958e-19 -4.5108357562291546e-17 -1.457504280696782e-17
1.1212392986603e-19 -3.340044340678853e-17 -1.0716981832699039e-17
-4.252671969792e-20 1.350911817409313e-17 4.3056106554027995e-18
8.067720747547e-20 -2.763636675185676e-17 -8.752341532642639e-18
5.176828005812e-20 -1.875134183075973e-17 -5.9030771151110396e-18
4.7325688106169997e-20 -1.861852294925455e-17 -5.82878339242541e-18
-1.0412265116038999e-19 4.4268336077220196e-17 1.378812578480837e-17
-3.8844852623789997e-20 1.3282567320802269e-17 4.11787678632457e-18
-2.5608999224326996e-19 6.274496953862848e-17 1.937124467754272e-17
-1.2145999260018999e-19 2.028412270963967e-17 6.23927517606512e-18
-7.0183463847e-20 9.023397050257819e-18 2.7639984248613297e-18
5.611151308405799e-19 -5.746054293906535e-17 -1.7550749630424398e-17
1.80259521427216e-18 -1.3973098932349633e-16 -4.2576291184580796e-17
4.4675593666504e-19 -2.484035465760918e-17 -7.55411195274906e-18
-8.7809528603348e-19 2.4819971315276238e-17 7.53847617763689e-18
-1.1658544918e-22 -3.2629240721399997e-21 -8.021490951e-22
-1.0939290960725e-19 5.0622965399231e-19 7.367639606315999e-20
8.486990590848999e-20 3.1721589339747e-19 1.0286429265584999e-19
7.469101544073e-20 3.2308772846054e-18 8.068606430945199e-19
3.912645642823e-20 5.0465024522272696e-18 1.2751127715909e-18
-8.864190197875999e-20 -2.8747149297714786e-17 -7.47337709313431e-18
1.4428448078999998e-21 2.340016566833764e-17 6.2655470985345e-18
2.3208582089099997e-21 -1.04984139945311e-18 -2.8926492750522997e-19
-1.223411752469e-19 2.99274818694203e-17 8.472400212553189e-18
-3.0526762561971e-19 5.367645177846704e-17 1.557668615572432e-17
-3.2122656164814997e-19 4.5515389187785745e-17 1.35079303022965e-17
-7.2844795820551e-19 8.870554262990795e-17 2.6855262761566838e-17
1.2205406807083e-19 -1.3588595687238179e-17 -4.18124036862146e-18
-1.9657212996584e-19 1.975713358849625e-17 6.180047991007439e-18
-1.1311481290981e-19 1.080966357626372e-17 3.42801163287483e-18
-6.328169860806e-19 5.879520998559344e-17 1.8861816340311218e-17
5.3124787538375e-19 -4.836649666282208e-17 -1.5669053124298498e-17
8.618960402667e-20 -7.83583228504944e-18 -2.56023487028339e-18
1.6426900400021e-19 -1.483161117282958e-17 -4.88177143247072e-18
-5.6552064829564e-19 5.0214744167754995e-17 1.6633014441811728e-17
9.7592114776102e-19 -8.778189263954978e-17 -2.92385164589636e-17
-1.937815070283e-20 1.80936205941452e-18 6.0551100859714e-19
5.515706116945999e-20 -5.1691302402368e-18 -1.7412124701550597e-18
5.941161040336e-20 -5.67320527455202e-18 -1.9178165730913297e-18
5.9788689547735e-19 -5.898201849931234e-17 -1.998315898336959e-17
-4.8925093520382e-19 5.0339953802090345e-17 1.706940457074e-17
7.814250736211199e-19 -8.522255333225987e-17 -2.888118398453892e-17
6.354711912875e-20 -7.47503964276575e-18 -2.52760443955265e-18
-3.4420796325333997e-19 4.427746466316894e-17 1.492724555763461e-17
-6.7436751719531e-19 9.564168871624103e-17 3.216065526332926e-17
1.6631747705e-20 -2.6226049726719297e-18 -8.7739255134566e-19
2.8284813188608e-19 -5.0666398152662055e-17 -1.685441602540404e-17
2.4669579946892e-19 -5.028790394845112e-17 -1.661771550665834e-17
1.5938804825313998e-19 -3.616585521612198e-17 -1.186758348314293e-17
3.3531522597539e-19 -8.398345849685873e-17 -2.7360254016001438e-17
1.624603063958e-19 -4.5108357562291546e-17 -1.457504280696782e-17
1.1212392986603e-19 -3.340044340678853e-17 -1.0716981832699039e-17
-4.252671969792e-20 1.350911817409313e-17 4.3056106554027995e-18
8.067720747547e-20 -2.763636675185676e-17 -8.752341532642639e-18
5.176828005812e-20 -1.875134183075973e-17 -5.9030771151110396e-18
4.7325688106169997e-20 -1.861852294925455e-17 -5.82878339242541e-18
-1.0412265116038999e-19 4.4268336077220196e-17 1.378812578480837e-17
-3.8844852623789997e-20 1.3282567320802269e-17 4.11787678632457e-18
-2.5608999224326996e-19 6.274496953862848e-17 1.937124467754272e-17
-1.2145999260018999e-19 2.028412270963967e-17 6.23927517606512e-18
-7.0183463847e-20 9.023397050257819e-18 2.7639984248613297e-18
5.611151308405799e-19 -5.746054293906535e-17 -1.7550749630424398e-17
1.80259521427216e-18 -1.3973098932349633e-16 -4.2576291184580796e-17
4.4675593666504e-19 -2.484035465760918e-17 -7.55411195274906e-18
-8.7809528603348e-19 2.4819971315276238e-17 7.53847617763689e-18

SCALARS Gamma float
LOOKUP_TABLE default
0.00011247082358081226
-0.00104484998780373
0.0009936696911198185
0.015172139703822281
0.052365892598103134
0.0911770959576889
0.13758669257105016
0.17872423182475802
0.22167208046830997
0.2518733544816857
0.2683239817854052
0.2727980303299626
0.2721187009873111
0.24448176049886539
0.22980449924037993
0.22007351995194857
0.20753314111826823
0.20320986920415304
0.1974219123100355
0.1918414069730308
0.19151385446069144
0.18985626003450076
0.18339139595840281
0.18114199316205307
0.18000166094681716
0.18047668444634
0.1822173082374434
0.18408372242267726
0.18755861151449985
0.19219887176367556
0.19388592429239057
0.20256328444940036
0.20275139406127377
0.20273971666819787
0.2024119290174625
0.2020742204413808
0.2008244817667236
0.19944378831049425
0.19844641477418654
0.19537502275667226
0.19694143671591083
0.20320210962871232
0.1797407071851433
0.1360016525805222
0.10884632995867936
0.08658085086487555
0.06989518995757298
0.05385513672493009
0.03904815373624564
0.020436202300237575
0.00011247082358081226
-0.00104484998780373
0.0009936696911198185
0.015172139703822281
0.052365892598103134
0.0911770959576889
0.13758669257105016
0.17872423182475802
0.22167208046830997
0.2518733544816857
0.2683239817854052
0.2727980303299626
0.2721187009873111
0.24448176049886539
0.22980449924037993
0.22007351995194857
0.20753314111826823
0.20320986920415304
0.1974219123100355
0.1918414069730308
0.19151385446069144
0.18985626003450076
0.18339139595840281
0.18114199316205307
0.18000166094681716
0.18047668444634
0.1822173082374434
0.18408372242267726
0.18755861151449985
0.19219887176367556
0.19388592429239057
0.20256328444940036
0.20275139406127377
0.20273971666819787
0.2024119290174625
0.2020742204413808
0.2008244817667236
0.19944378831049425
0.19844641477418654
0.19537502275667226
0.19694143671591083
0.20320210962871232
0.1797407071851433
0.1360016525805222
0.10884632995867936
0.08658085086487555
0.06989518995757298
0.05385513672493009
0.03904815373624564
0.020436202300237575

VECTORS Ftot float
-0.00036458224941009437 0.00015785682417444825 -0.0005891296881404949
0.029141488429227216 0.013784463412442435 -0.051444317810308296
0.018242273448045177 0.02321904914714323 -0.08665467112057543
-0.14230140830778093 0.04839285159843169 -0.18060458088848383
-0.699006645628863 0.09505754530978457 -0.3547595887388888
-1.4519437121960659 0.15033185514639202 -0.5610461214024074
-2.522223222620813 0.21628859976725595 -0.8072000434293115
-3.6769789096796135 0.28723476003578785 -1.071974718153391
-5.044979502685368 0.364792170462718 -1.3614229143701602
-6.265793017298572 0.4292000144871836 -1.601796260675432
-7.2294921432912185 0.47424048290447385 -1.7698895772054568
-7.901259654896385 0.4996375969701099 -1.8646728972640307
-8.422773888187743 0.509935940594 -1.9031068389021908
-8.03766535875538 0.47775140756296525 -1.7829925264124928
-7.994394986266119 0.4558230159576066 -1.7011546548130292
-8.068070382968447 0.4402130823131235 -1.642897589349041
-7.9870332661880825 0.4196427782880713 -1.5661281696004092
-8.18514305555803 0.41037552534746913 -1.5315423107794908
-8.294716912246338 0.40224411950160527 -1.5011954910257648
-8.381533176668091 0.39963962352619414 -1.491475379717422
-8.684032276649141 0.39718040462385673 -1.4822974498269652
-8.917274047710212 0.3836291087286752 -1.4317233250377495
-8.899004872364605 0.36928720939642085 -1.3781986280527392
-9.06253855581488 0.3627718324091549 -1.353882910105798
-9.268696917857715 0.3553206274079365 -1.3260746344636405
-9.548412353443862 0.3495655256652199 -1.3045963023570943
-9.890089736036305 0.3425163031911426 -1.278288245929982
-10.234006018765575 0.33212745054824155 -1.2395165200343299
-10.666091489946886 0.321153442277053 -1.198560963603574
-11.166121638067137 0.30881811109039403 -1.152524880886775
-11.490657812653264 0.2931721509725913 -1.09413336279394
-12.231494891977132 0.28276389347663927 -1.0552892170007884
-12.45894589211599 0.26202070754944407 -0.9778745932096498
-12.663066269462549 0.24842441999864992 -0.9271325572757709
-12.83708402417853 0.2374696478999834 -0.8862487912182105
-12.999714527838059 0.22742159402508696 -0.8487489436399084
-13.093632681224857 0.22257987624936934 -0.8306794069050214
-13.16782047569759 0.21877463587260412 -0.8164780564839215
-13.256667765215681 0.21271876741602358 -0.7938772477200094
-13.19486958749619 0.2083029335237258 -0.7773971312761699
-13.436365362785056 0.20284761176930433 -0.7570375933170336
-13.994057903253928 0.20266611463670334 -0.7563602367967387
-12.485602276329724 0.23255232662498163 -0.867897098382765
-9.523103180132384 0.25538211106717845 -0.9530990138468869
-7.678620665721299 0.31076061747883227 -1.1597744134224532
-6.149177098821434 0.33403668034974304 -1.2466418626568578
-4.99524320017074 0.3486312135946192 -1.3011094022394876
-3.8716248566179554 0.36413500757206074 -1.3589703490733787
-2.824070764624544 0.3763961235322718 -1.4047294567943789
-1.491157513451616 0.3951045534780397 -1.474550267881826
-0.00036458224941009437 0.00015785682417444825 -0.0005891296881404949
0.029141488429227216 0.013784463412442435 -0.051444317810308296
0.018242273448045177 0.02321904914714323 -0.08665467112057543
-0.14230140830778093 0.04839285159843169 -0.18060458088848383
-0.699006645628863 0.09505754530978457 -0.3547595887388888
-1.4519437121960659 0.15033185514639202 -0.5610461214024074
-2.522223222620813 0.21628859976725595 -0.8072000434293115
-3.6769789096796135 0.28723476003578785 -1.071974718153391
-5.044979502685368 0.364792170462718 -1.3614229143701602
-6.265793017298572 0.4292000144871836 -1.601796260675432
-7.2294921432912185 0.47424048290447385 -1.7698895772054568
-7.901259654896385 0.4996375969701099 -1.8646728972640307
-8.422773888187743 0.509935940594 -1.9031068389021908
-8.03766535875538 0.47775140756296525 -1.7829925264124928
-7.994394986266119 0.4558230159576066 -1.7011546548130292
-8.068070382968447 0.4402130823131235 -1.642897589349041
-7.9870332661880825 0.4196427782880713 -1.5661281696004092
-8.18514305555803 0.41037552534746913 -1.5315423107794908
-8.294716912246338 0.40224411950160527 -1.5011954910257648
-8.381533176668091 0.39963962352619414 -1.491475379717422
-8.684032276649141 0.39718040462385673 -1.4822974498269652
-8.917274047710212 0.3836291087286752 -1.4317233250377495
-8.899004872364605 0.36928720939642085 -1.3781986280527392
-9.06253855581488 0.3627718324091549 -1.353882910105798
-9.268696917857715 0.3553206274079365 -1.3260746344636405
-9.548412353443862 0.3495655256652199 -1.3045963023570943
-9.890089736036305 0.3425163031911426 -1.278288245929982
-10.234006018765575 0.33212745054824155 -1.2395165200343299
-10.666091489946886 0.321153442277053 -1.198560963603574
-11.166121638067137 0.30881811109039403 -1.152524880886775
-11.490657812653264 0.2931721509725913 -1.09413336279394
-12.231494891977132 0.28276389347663927 -1.0552892170007884
-12.45894589211599 0.26202070754944407 -0.9778745932096498
-12.663066269462549 0.24842441999864992 -0.9271325572757709
-12.83708402417853 0.2374696478999834 -0.8862487912182105
-12.999714527838059 0.22742159402508696 -0.8487489436399084
-13.093632681224857 0.22257987624936934 -0.8306794069050214
-13.16782047569759 0.21877463587260412 -0.8164780564839215
-13.256667765215681 0.21271876741602358 -0.7938772477200094
-13.19486958749619 0.2083029335237258 -0.7773971312761699
-13.436365362785056 0.20284761176930433 -0.7570375933170336
-13.994057903253928 0.20266611463670334 -0.7563602367967387
-12.485602276329724 0.23255232662498163 -0.867897098382765
-9.523103180132384 0.25538211106717845 -0.9530990138468869
-7.678620665721299 0.31076061747883227 -1.1597744134224532
-6.149177098821434 0.33403668034974304 -1.2466418626568578
-4.99524320017074 0.3486312135946192 -1.3011094022394876
-3.8716248566179554 0.36413500757206074 -1.3589703490733787
-2.824070764624544 0.3763961235322718 -1.4047294567943789
-1.491157513451616 0.3951045534780397 -1.474550267881826

VECTORS D float
0.00017256896959085208 6.990440291100672e-5 -0.00030943348481726746
0.021580406223610835 0.012623735712786157 -0.05469548118521531
0.027754342367523922 0.01991195500551394 -0.084304249781422
0.03869408779118573 0.031885175685069794 -0.1312583423812064
0.04499034909147424 0.040849959781767003 -0.16305203726105832
0.05077421119259474 0.05036415851753766 -0.19433339020765386
0.05199104994009695 0.05585564465309595 -0.20861807163119644
0.0573065076713134 0.06611729064880831 -0.23950248397392773
0.061558874124866755 0.07591144596080118 -0.2672568789079532
0.06614562839978574 0.08700633227125949 -0.29852299989648146
0.07019388675309332 0.09849118893845941 -0.3301998570760318
0.07366670656300066 0.11034817770836836 -0.36249254778435896
0.07535429609801858 0.12152062937597498 -0.39272973019842455
0.0746147086869431 0.12819900252468755 -0.40746894688245694
0.06955484882006685 0.12710132989945488 -0.39849775289471623
0.06510769819081033 0.12628344518801918 -0.39146073140441695
0.06118190291762077 0.12569321247120221 -0.38590957204771
0.0573174823311491 0.12447779503324394 -0.3790460653634936
0.055838936204535096 0.12799366205726492 -0.38698649617624914
0.057353116279750455 0.13864825196252534 -0.416626352026995
0.05530036376156761 0.14102814395963523 -0.4215586182371847
0.04957816355109395 0.13358460013306592 -0.3975851316654371
0.0470484166144572 0.13412729460289294 -0.39669277243248907
0.045814518080170515 0.1385951787075787 -0.40856721939226115
0.04395737939525431 0.14172808989490987 -0.417007505464418
0.04233377610667379 0.1463655488742461 -0.43043816194917955
0.04008370651960899 0.14975622965821447 -0.4408159257730826
0.03714957599821594 0.15141668976294348 -0.44685987741923966
0.033896735416478876 0.15211761880075433 -0.45043239483645264
0.030389957360191396 0.15191920189538685 -0.45115110058561975
0.027123601661406507 0.15266137596613819 -0.45580438337514156
0.023998152975189143 0.1543011453615828 -0.4634450355201042
0.020424990866057764 0.15174287158552957 -0.458895339052407
0.01805644818966716 0.15735925152391325 -0.47930178317898126
0.0158859395042667 0.16530329235223135 -0.5072107659215049
0.013554657888165098 0.1740065788603064 -0.5383825617168568
0.011575707828057311 0.18654205005823613 -0.5812540666157815
0.009458294408889014 0.19853289889002196 -0.6228157576093173
0.007139066720406467 0.20600605072056072 -0.650418266885116
0.004938552725059194 0.2139888404873778 -0.6797001220423171
0.0028139644983906763 0.21851014253998288 -0.6979506111011178
0.0009097014061510122 0.22772850176235251 -0.7311412215982762
-0.0009858200315676724 0.26986113898363606 -0.8704697167619032
-0.0030426519256559984 0.2992786709058443 -0.9694271377423233
-0.005688240961602924 0.363122938447485 -1.1806373221231263
-0.007861433192177983 0.388368728157241 -1.2680748828047916
-0.009700905851505922 0.40339132275690204 -1.3209992869697642
-0.011383523966624719 0.41861965119929934 -1.374348405418418
-0.013427829617373783 0.4300932777148809 -1.4150794406745841
-0.014938774678501968 0.4470863491725028 -1.473744529762516
0.00017256896959085208 6.990440291100672e-5 -0.00030943348481726746
0.021580406223610835 0.012623735712786157 -0.05469548118521531
0.027754342367523922 0.01991195500551394 -0.084304249781422
0.03869408779118573 0.031885175685069794 -0.1312583423812064
0.04499034909147424 0.040849959781767003 -0.16305203726105832
0.05077421119259474 0.05036415851753766 -0.19433339020765386
0.05199104994009695 0.05585564465309595 -0.20861807163119644
0.0573065076713134 0.06611729064880831 -0.23950248397392773
0.061558874124866755 0.07591144596080118 -0.2672568789079532
0.06614562839978574 0.08700633227125949 -0.29852299989648146
0.07019388675309332 0.09849118893845941 -0.3301998570760318
0.07366670656300066 0.11034817770836836 -0.36249254778435896
0.07535429609801858 0.12152062937597498 -0.39272973019842455
0.0746147086869431 0.12819900252468755 -0.40746894688245694
0.06955484882006685 0.12710132989945488 -0.39849775289471623
0.06510769819081033 0.12628344518801918 -0.39146073140441695
0.06118190291762077 0.12569321247120221 -0.38590957204771
0.0573174823311491 0.12447779503324394 -0.3790460653634936
0.055838936204535096 0.12799366205726492 -0.38698649617624914
0.057353116279750455 0.13864825196252534 -0.416626352026995
0.05530036376156761 0.14102814395963523 -0.4215586182371847