# vtk DataFile Version 4.0
[MyVLM domain - lattices] 
ASCII
DATASET UNSTRUCTURED_GRID
POINTS 152 float
0.0018916144324157278 -0.010108350874058104 -0.0005396899529873523
0.0010688609733395774 -0.013308426088719188 -0.003348984700025599
0.00045780959861706216 -0.016464381050990136 -0.006096417466463629
-0.00013255382275044122 -0.019463955462046455 -0.008860593759780024
-0.0007201482309470062 -0.022354282863068915 -0.011608510319137491
-0.0011946371146526612 -0.025012832345089043 -0.014425964210659446
-0.0014108622120167862 -0.027190727594675446 -0.017487220505092396
-0.0013224843579428829 -0.02909544741103348 -0.020647000983214044
-0.0010167791708201568 -0.031029835296121515 -0.023693252342055323
-0.0006138083932142036 -0.03279133206684002 -0.02676780804855612
-0.00020084691410191335 -0.03447346932995427 -0.02980517656659851
0.0001698744379422134 -0.03619375148278742 -0.03272308043140405
0.0004739400232210948 -0.0378918355493852 -0.03556377224961391
0.0007082255455298663 -0.039500710718081776 -0.038374173496698076
0.0008836440760600275 -0.04103000722877757 -0.0411475410060835
0.001017516815515788 -0.04252825237110072 -0.04384989560376366
0.0011275777072549662 -0.04403989247292338 -0.04645011563591674
0.0012277625198140337 -0.045576034338295775 -0.04894042403462136
0.00132638558954348 -0.047108969913025454 -0.05134022218829219
0.0014271324949937316 -0.04859788545567992 -0.05367808818634283
0.0015306083418583354 -0.05001583867355213 -0.05597288722522339
0.0016355657532635378 -0.05136221801849109 -0.05822504751555916
0.0017398364473795213 -0.05265352021106348 -0.06042301792925362
0.0018410131526058282 -0.053908827336844996 -0.06255343704614191
0.001936923789896676 -0.05514216387998616 -0.06460648481670232
0.0020259353317291845 -0.05636136323012439 -0.06657667624246102
0.0021071205190511294 -0.05756849703667393 -0.0684625607388816
0.002180316672546981 -0.058760574399776375 -0.07026623255659097
0.0022461021518325993 -0.05993041108082999 -0.07199272215361434
0.0023056987632523672 -0.061067708769050676 -0.07364924048479357
0.0023607022647827588 -0.06216121882852034 -0.07524366392979309
0.0024126938092907785 -0.06320164760312708 -0.07678249997667998
0.0024629658139780817 -0.06418350464717132 -0.07826959307692122
0.0025123806343549317 -0.0651058035947244 -0.07970563389137549
0.0025613283706516186 -0.06597193145395071 -0.08108825081139408
0.0026097549007438213 -0.06678895501061365 -0.08241249562031458
0.0026572361369983943 -0.06756657772379772 -0.0836715738829393
0.002703078927872171 -0.06831522878052293 -0.08485818300389943
0.0027464329900004744 -0.06904146453920579 -0.08596773217160852
0.0027864017842759935 -0.06974415702746199 -0.08700101120083296
0.0028221433614242725 -0.07041411850332949 -0.0879644534177537
0.0028529549202113143 -0.07103605342112115 -0.0888687688787619
0.002878337166053322 -0.07159116899627 -0.08972711643327533
0.0028980365508205295 -0.07205634170108863 -0.09055568734969066
0.0029120651374179955 -0.07240305270489525 -0.09137445072823225
0.002920699186668212 -0.07260224920237711 -0.09220374956218622
0.0029244586304951574 -0.0726320851440791 -0.09305888062006114
0.002924070395798875 -0.07248505564577346 -0.09394509887836668
0.0029204190990956736 -0.07217249635856265 -0.09485446702875035
0.0029144889643634465 -0.07172557532273435 -0.09576516097445154
0.002907300946956263 -0.07119277085660074 -0.09664323583154827
0.006212993241944028 0.001847434768873726 -0.008911221185387702
0.0072288922610571306 0.001975011048444913 -0.014050562593222205
0.007974780507892725 0.0009098976467167577 -0.018262018381554463
0.008270023946844132 -0.0008868238987417166 -0.021868441318719626
0.008140225139500825 -0.003201006406203235 -0.0250197788756495
0.007751519283975376 -0.00571767885354902 -0.027936576136349273
0.007318662739924205 -0.008052663400673447 -0.030887837320474027
0.0069707766105224795 -0.010323282811730151 -0.03379141214415979
0.006702226685381192 -0.012771732933903665 -0.03647771324948486
0.006460614097576536 -0.015151269012922792 -0.03911951317340365
0.006208498480286784 -0.017520748020011506 -0.04167559982098891
0.005928720355726676 -0.019970175570458482 -0.04408295058193432
0.00562110152420414 -0.022417647571531883 -0.04639891531938095
0.005297776270156929 -0.024779201645641447 -0.048682285123043505
0.004977662142563614 -0.027051130733346158 -0.050935655703887174
0.004680078492205027 -0.02927140176563979 -0.05313244233062743
0.0044193472589770496 -0.031475916483036284 -0.05524750633392156
0.0042022226504668725 -0.033668833952246874 -0.057277935503906426
0.004028605706719037 -0.035817018456447317 -0.05924693171928639
0.003894567528214928 -0.03787586071818501 -0.061185730732407816
0.003794542923454683 -0.03981619298704566 -0.06311475602198342
0.0037223892098821663 -0.04163655177781924 -0.06503503233138934
0.0036720478837599236 -0.04335375264160976 -0.06693478528498337
0.0036379885391020494 -0.04498817693556422 -0.06879974370285223
0.003615480687410345 -0.04655594961029362 -0.07061861677302488
0.003600729157216099 -0.04806763711033045 -0.07238400579138755
0.0035909263662617956 -0.04952852197730709 -0.07409221188246837
0.003584242976167935 -0.05093916078811257 -0.07574284532693404
0.00357976601221264 -0.052296124514838976 -0.07733830715597441
0.003577378730160166 -0.05359296080266499 -0.07888311535707457
0.0035774796054096774 -0.054822253141967744 -0.08038246302617966
0.003580588564800478 -0.055978434349963795 -0.08184024834664123
0.0035870678637920984 -0.05705955569917382 -0.08325783583213024
0.0035969747054953923 -0.05806792168072748 -0.08463361186058593
0.0036100119296844893 -0.05900990631470427 -0.08596311329509998
0.0036255480079795204 -0.05989521955827581 -0.0872395411504651
0.0036426825552804717 -0.060735836825150324 -0.0884545101517296
0.0036603380175139954 -0.06154407270416406 -0.08959939753096043
0.003677362157174432 -0.06232797834669999 -0.09066856581126792
0.0036926294639041822 -0.06308753627485462 -0.09166202723081186
0.0037051326977571345 -0.0638143005803673 -0.09258569567822342
0.003714058455611533 -0.06449337271798192 -0.09345000322719924
0.003718842962038476 -0.06510604287748077 -0.09426805062789224
0.003719206248598144 -0.06562899300815576 -0.09505616535518462
0.003715164522496519 -0.06603327322606135 -0.0958346183360453
0.0037070218583473346 -0.06628920726140682 -0.09662418911828771
0.003695343396461056 -0.06637417919004227 -0.09744071354248518
0.003680913018392471 -0.0662798144908701 -0.09829005551143916
0.0036646790161518838 -0.06601652552800931 -0.09916492420930291
0.003647691596346039 -0.0656145478649757 -0.10004414846658069
0.0036310361855396924 -0.0651214599274998 -0.10089441351091978
0.005410766489344848 -0.0014936799388526717 -0.009096753248605335
0.005892211109850776 -0.002639760131778038 -0.013297893136352407
0.006132458642509649 -0.004482389408638933 -0.01691854879088324
0.006047255650667177 -0.006760216154993776 -0.02014172058275311
0.005720055990603616 -0.009265396373426842 -0.023112942445724156
0.005325630843128663 -0.011689323337803986 -0.026048303135777717
0.005016871435172548 -0.013926751705364969 -0.02902149623527599
0.004834968294868498 -0.016176291243007054 -0.03189345368827541
0.004732241848104854 -0.018448771650430115 -0.03465659245740962
0.00464908530328423 -0.02066010656194965 -0.03736979044979154
0.004547585503985086 -0.022892498948018956 -0.03997548852584653
0.004411660012619469 -0.025156132057267966 -0.042466556298120475
0.004242349868979272 -0.02737288673987337 -0.04489769338419817
0.00405227310746894 -0.02950271438547777 -0.0472969421229467
0.003859297849485217 -0.031565732137104514 -0.04965021633917387
0.0036804214720396232 -0.03360126244875654 -0.051929982154165916
0.003527506244425096 -0.035631272264633584 -0.05412085814800275
0.003405829147614405 -0.03764282018467548 -0.056231905986561505
0.003315379723667389 -0.0395981866115753 -0.05828953721621471
0.003253134023982613 -0.04146123565561551 -0.06031905445934249
0.003214621311891553 -0.04321703637332974 -0.062330912475112604
0.0031948391851961662 -0.0448733314359802 -0.06431968978674137
0.0031888698585714084 -0.046448517034928805 -0.06627250524236279
0.0031922930777549615 -0.04796042135680059 -0.06817687541130946
0.003201436081938149 -0.04942178590899785 -0.07002387859405008
0.0032135028026517493 -0.05083979219121387 -0.0718084862503638
0.003226618152360912 -0.05221651496658866 -0.07352924561545998
0.0032398057236901635 -0.05354960517368263 -0.07518780151986634
0.003252904392775423 -0.05483317197529908 -0.07678827877219435
0.003266372004343082 -0.056059321178933655 -0.07833620494554366
0.0032809500730880004 -0.05722061611343026 -0.07983678725311698
0.0032973286136308236 -0.058312390299713905 -0.08129329319873946
0.0033159342695244357 -0.05933396754769996 -0.08270619625580565
0.0033368336138182735 -0.060288902379371304 -0.08407300752122841
0.0033597203855484335 -0.06118453301043808 -0.0853885887210505
0.0033839603409402744 -0.062031087735586216 -0.08664577792622975
0.003408672097906746 -0.06284019188653298 -0.08783643499186361
0.0034328265552422406 -0.06362160580904011 -0.08895372565027412
0.0034553512046890385 -0.06437902067891646 -0.08999506531233512
0.003475228953835527 -0.06510797326205715 -0.09096357916821157
0.0034915839677176984 -0.0657966489774373 -0.09186753987659795
0.0035037495424018335 -0.06642818365047241 -0.09271875585966396
0.0035113151685979642 -0.06698157729428353 -0.09353193146652458
0.003514151750190315 -0.06743077413857941 -0.09432531114395158
0.003512415433327221 -0.06774659292120962 -0.09511932783167719
0.0035065316976985676 -0.06790306171260044 -0.09593216727057076
0.0034971622838568268 -0.06788489022907371 -0.0967745358325251
0.003485158199815951 -0.06769332150762179 -0.0976455631336679
0.0034715024876191118 -0.06734891148253151 -0.09853085575385659
0.003457246657122113 -0.0668907961945952 -0.09940301034231265

CELLS 100 350
4 0 51 52 1
4 1 52 53 2
4 2 53 54 3
4 3 54 55 4
4 4 55 56 5
4 5 56 57 6
4 6 57 58 7
4 7 58 59 8
4 8 59 60 9
4 9 60 61 10
4 10 61 62 11
4 11 62 63 12
4 12 63 64 13
4 13 64 65 14
4 14 65 66 15
4 15 66 67 16
4 16 67 68 17
4 17 68 69 18
4 18 69 70 19
4 19 70 71 20
4 20 71 72 21
4 21 72 73 22
4 22 73 74 23
4 23 74 75 24
4 24 75 76 25
4 25 76 77 26
4 26 77 78 27
4 27 78 79 28
4 28 79 80 29
4 29 80 81 30
4 30 81 82 31
4 31 82 83 32
4 32 83 84 33
4 33 84 85 34
4 34 85 86 35
4 35 86 87 36
4 36 87 88 37
4 37 88 89 38
4 38 89 90 39
4 39 90 91 40
4 40 91 92 41
4 41 92 93 42
4 42 93 94 43
4 43 94 95 44
4 44 95 96 45
4 45 96 97 46
4 46 97 98 47
4 47 98 99 48
4 48 99 100 49
4 49 100 101 50
1 102
1 103
1 104
1 105
1 106
1 107
1 108
1 109
1 110
1 111
1 112
1 113
1 114
1 115
1 116
1 117
1 118
1 119
1 120
1 121
1 122
1 123
1 124
1 125
1 126
1 127
1 128
1 129
1 130
1 131
1 132
1 133
1 134
1 135
1 136
1 137
1 138
1 139
1 140
1 141
1 142
1 143
1 144
1 145
1 146
1 147
1 148
1 149
1 150
1 151

CELL_TYPES 100
9
9
9
9
9
9
9
9
9
9
9
9
9
9
9
9
9
9
9
9
9
9
9
9
9
9
9
9
9
9
9
9
9
9
9
9
9
9
9
9
9
9
9
9
9
9
9
9
9
9
1
1
1
1
1
1
1
1
1
1
1
1
1
1
1
1
1
1
1
1
1
1
1
1
1
1
1
1
1
1
1
1
1
1
1
1
1
1
1
1
1
1
1
1
1
1
1
1
1
1

CELL_DATA 100

VECTORS S float
-7.735134232343034e-17 7.669051685932367e-17 -6.369180729222371e-17
4.29568691300828e-18 3.69995130635782e-18 1.534560036132518e-17
1.4252978741757e-19 -2.56533093596657e-18 -4.88029140606038e-18
-9.859961409518119e-18 6.43646442039354e-18 1.4919075657550598e-18
-1.0312669057199999e-21 -6.685329040019e-20 -1.3410740901917e-19
1.6167692982651e-19 -5.771460794056899e-19 -1.01673226343628e-18
-3.1600408265117996e-19 4.71580657681427e-18 9.199118836308659e-18
5.0373390234146e-19 -9.437195110026289e-18 -1.858308581796997e-17
-2.07986933259399e-18 4.3683929478400895e-17 8.650575106791372e-17
5.202364113032e-20 -1.18616617290315e-18 -2.35813359424622e-18
1.8431353113296097e-18 -4.426237385940144e-17 -8.834551376457119e-17
1.37657539805449e-18 -3.418912930102548e-17 -6.848870677557446e-17
-1.6874503533999798e-18 4.3375746993685495e-17 8.71996174411479e-17
-1.7000850297928998e-19 4.3632336474409496e-18 8.796210753071419e-18
-2.6125039819945e-19 6.7122780293621194e-18 1.3594644827370369e-17
2.2583600008199997e-19 -5.787666672895889e-18 -1.178233060594378e-17
1.43937458611085e-18 -3.564948059912932e-17 -7.296397103681926e-17
-6.653462247350199e-19 1.639086784300834e-17 3.374985222509494e-17
-1.5990005090689898e-18 3.79744982210181e-17 7.8675800092707e-17
1.86304195544625e-18 -4.5274362683145286e-17 -9.445077433810027e-17
-1.1048432355542e-19 2.62949239601797e-18 5.5229431132268196e-18
-1.3979821895306e-19 3.3242505044398097e-18 7.030934744829149e-18
-1.78640517359989e-18 3.9596839483448296e-17 8.494597920492047e-17
8.8297425170257e-19 -1.931543856099764e-17 -4.1795644815459517e-17
-1.7574001254437498e-18 3.842356688708292e-17 8.386904227263275e-17
2.8290710412599997e-21 -6.195225544893e-20 -1.3637341406635e-19
7.4243483330582e-19 -1.68663820461584e-17 -3.733295661821175e-17
1.22268074634378e-18 -2.799990566833807e-17 -6.234476176040916e-17
-1.71726875942111e-18 4.0496950537284836e-17 9.060263487600532e-17
1.6833077220989599e-18 -4.144895787105879e-17 -9.305670211347565e-17
-7.0703878495144e-19 1.8127027790554438e-17 4.10442346206498e-17
-6.820369938749e-20 1.95013648158427e-18 4.419294299902229e-18
5.8605046213587e-19 -1.836283958286864e-17 -4.1585169737088526e-17
-3.1934617768761996e-19 1.1125983306962369e-17 2.5148597335567687e-17
-1.0785799157050999e-19 4.1714513555493596e-18 9.4009195942139e-18
2.8268598973064e-19 -1.233240291768702e-17 -2.7607835786811887e-17
5.664237011731399e-19 -2.71941902829013e-17 -6.062363814618155e-17
-3.4934875862981997e-19 1.817108719552078e-17 4.025251774366386e-17
-1.683660360206e-19 9.53556367142711e-18 2.0984465981823528e-17
-5.260864101964799e-19 3.1901558704390227e-17 6.97361341941631e-17
9.51136427084e-20 -6.26203579081068e-18 -1.359806815606395e-17
-3.3343584450364997e-19 2.29933195708664e-17 4.9608003149267706e-17
-4.2555746191884997e-19 2.671711852321441e-17 5.728641273578579e-17
2.3197725227357e-19 -1.182524504637514e-17 -2.5209361664608478e-17
-2.8602018485923e-19 9.1142312934347e-18 1.934811235389579e-17
3.20153396864822e-18 -7.661742562252901e-17 -1.618278541350644e-16
1.3331315485470599e-18 -2.499432058926811e-17 -5.2560834024561665e-17
5.137548662783e-20 -7.1946669420214e-19 -1.50744398863573e-18
-1.0477746456621599e-18 9.95908085184289e-18 2.080835116522401e-17
-5.55689631333716e-18 2.77802612483399e-17 5.797887666523032e-17
-7.735134232343034e-17 7.669051685932367e-17 -6.369180729222371e-17
4.29568691300828e-18 3.69995130635782e-18 1.534560036132518e-17
1.4252978741757e-19 -2.56533093596657e-18 -4.88029140606038e-18
-9.859961409518119e-18 6.43646442039354e-18 1.4919075657550598e-18
-1.0312669057199999e-21 -6.685329040019e-20 -1.3410740901917e-19
1.6167692982651e-19 -5.771460794056899e-19 -1.01673226343628e-18
-3.1600408265117996e-19 4.71580657681427e-18 9.199118836308659e-18
5.0373390234146e-19 -9.437195110026289e-18 -1.858308581796997e-17
-2.07986933259399e-18 4.3683929478400895e-17 8.650575106791372e-17
5.202364113032e-20 -1.18616617290315e-18 -2.35813359424622e-18
1.8431353113296097e-18 -4.426237385940144e-17 -8.834551376457119e-17
1.37657539805449e-18 -3.418912930102548e-17 -6.848870677557446e-17
-1.6874503533999798e-18 4.3375746993685495e-17 8.71996174411479e-17
-1.7000850297928998e-19 4.3632336474409496e-18 8.796210753071419e-18
-2.6125039819945e-19 6.7122780293621194e-18 1.3594644827370369e-17
2.2583600008199997e-19 -5.787666672895889e-18 -1.178233060594378e-17
1.43937458611085e-18 -3.564948059912932e-17 -7.296397103681926e-17
-6.653462247350199e-19 1.639086784300834e-17 3.374985222509494e-17
-1.5990005090689898e-18 3.79744982210181e-17 7.8675800092707e-17
1.86304195544625e-18 -4.5274362683145286e-17 -9.445077433810027e-17
-1.1048432355542e-19 2.62949239601797e-18 5.5229431132268196e-18
-1.3979821895306e-19 3.3242505044398097e-18 7.030934744829149e-18
-1.78640517359989e-18 3.9596839483448296e-17 8.494597920492047e-17
8.8297425170257e-19 -1.931543856099764e-17 -4.1795644815459517e-17
-1.7574001254437498e-18 3.842356688708292e-17 8.386904227263275e-17
2.8290710412599997e-21 -6.195225544893e-20 -1.3637341406635e-19
7.4243483330582e-19 -1.68663820461584e-17 -3.733295661821175e-17
1.22268074634378e-18 -2.799990566833807e-17 -6.234476176040916e-17
-1.71726875942111e-18 4.0496950537284836e-17 9.060263487600532e-17
1.6833077220989599e-18 -4.144895787105879e-17 -9.305670211347565e-17
-7.0703878495144e-19 1.8127027790554438e-17 4.10442346206498e-17
-6.820369938749e-20 1.95013648158427e-18 4.419294299902229e-18
5.8605046213587e-19 -1.836283958286864e-17 -4.1585169737088526e-17
-3.1934617768761996e-19 1.1125983306962369e-17 2.5148597335567687e-17
-1.0785799157050999e-19 4.1714513555493596e-18 9.4009195942139e-18
2.8268598973064e-19 -1.233240291768702e-17 -2.7607835786811887e-17
5.664237011731399e-19 -2.71941902829013e-17 -6.062363814618155e-17
-3.4934875862981997e-19 1.817108719552078e-17 4.025251774366386e-17
-1.683660360206e-19 9.53556367142711e-18 2.0984465981823528e-17
-5.260864101964799e-19 3.1901558704390227e-17 6.97361341941631e-17
9.51136427084e-20 -6.26203579081068e-18 -1.359806815606395e-17
-3.3343584450364997e-19 2.29933195708664e-17 4.9608003149267706e-17
-4.2555746191884997e-19 2.671711852321441e-17 5.728641273578579e-17
2.3197725227357e-19 -1.182524504637514e-17 -2.5209361664608478e-17
-2.8602018485923e-19 9.1142312934347e-18 1.934811235389579e-17
3.20153396864822e-18 -7.661742562252901e-17 -1.618278541350644e-16
1.3331315485470599e-18 -2.499432058926811e-17 -5.2560834024561665e-17
5.137548662783e-20 -7.1946669420214e-19 -1.50744398863573e-18
-1.0477746456621599e-18 9.95908085184289e-18 2.080835116522401e-17
-5.55689631333716e-18 2.77802612483399e-17 5.797887666523032e-17

SCALARS Gamma float
LOOKUP_TABLE default
-0.00014182589904731036
-0.0038828555126463747
0.030061975185149404
4.721934624271423e-5
-0.01759420427064456
0.0033352830602838127
0.04236026698266189
0.09265222748757929
0.1350493718725455
0.16946768293577047
0.18394885790891896
0.19513219455462777
0.1983898978779267
0.1741306052641731
0.1596913840917127
0.1505577618389078
0.13779981635565433
0.13843100478783105
0.1291299914578949
0.1316578740591477
0.1283204737409333
0.12421208348014112
0.11752292543329144
0.11749197013427844
0.12025524877841602
0.12233280047884171
0.12729914574470838
0.12502253962386162
0.12603663905813164
0.12857578886287796
0.13438498827050258
0.14822006018321243
0.15476174258781733
0.16034342848813882
0.16511100907854884
0.16920079704677088
0.17301925163482762
0.174289401952049
0.17497219675578882
0.17302436251861494
0.17315214372648843
0.16992409411072865
0.1697574999486371
0.14425134087652142
0.10706782252731699
0.08415175210146619
0.06724523413730171
0.051455227096016916
0.035513733745284284
0.0193366483239003
-0.00014182589904731036
-0.0038828555126463747
0.030061975185149404
4.721934624271423e-5
-0.01759420427064456
0.0033352830602838127
0.04236026698266189
0.09265222748757929
0.1350493718725455
0.16946768293577047
0.18394885790891896
0.19513219455462777
0.1983898978779267
0.1741306052641731
0.1596913840917127
0.1505577618389078
0.13779981635565433
0.13843100478783105
0.1291299914578949
0.1316578740591477
0.1283204737409333
0.12421208348014112
0.11752292543329144
0.11749197013427844
0.12025524877841602
0.12233280047884171
0.12729914574470838
0.12502253962386162
0.12603663905813164
0.12857578886287796
0.13438498827050258
0.14822006018321243
0.15476174258781733
0.16034342848813882
0.16511100907854884
0.16920079704677088
0.17301925163482762
0.174289401952049
0.17497219675578882
0.17302436251861494
0.17315214372648843
0.16992409411072865
0.1697574999486371
0.14425134087652142
0.10706782252731699
0.08415175210146619
0.06724523413730171
0.051455227096016916
0.035513733745284284
0.0193366483239003

VECTORS Ftot float
0.20555938727887754 0.14013638526298586 -0.0809077797548466
0.2712546588464249 0.2258260282519476 -0.13038071820128697
-0.2999723310307957 0.1694564827339114 -0.09783574592235166
0.013901878995706208 0.024586413768584354 -0.014194972607699806
0.32495014862507376 0.03169294154050839 -0.01829792832982373
-0.008028316323024772 0.1315814054127914 -0.07596855983542496
-0.7558538871935979 0.4012263423591526 -0.23164813676702747
-1.9167052109293332 0.7474403251530314 -0.4315348729302873
-3.11354584386008 1.034436551790433 -0.5972322216357993
-4.279969478771074 1.2701421694276605 -0.7333169234281606
-5.034313841798385 1.375891869201896 -0.7943715410595381
-5.737707936939891 1.4755497448780726 -0.8519090424080452
-6.22974630874152 1.5084552163461904 -0.8709070252179747
-5.799184484369321 1.378392886637417 -0.7958155041491841
-5.618443154312887 1.2914204563430856 -0.7456019481066755
-5.574090536902346 1.2403917949702434 -0.7161405367266785
-5.343107786877489 1.1875219094090466 -0.6856160940658966
-5.612193519652268 1.2066275252256125 -0.6966467265006246
-5.451572599134841 1.1702338403709205 -0.6756348227529656
-5.786603746162984 1.164621186972081 -0.6723943558022776
-5.847481698986785 1.1553609155038882 -0.6670479355773473
-5.859260932308041 1.1143478094767922 -0.6433690077723007
-5.721025178914498 1.0818614817723022 -0.6246130177271308
-5.896065479480432 1.0811552211164932 -0.6242052579473815
-6.211645809292838 1.0918260827326836 -0.6303660827739742
-6.492954069548585 1.0945039096694897 -0.6319121268767826
-6.933504596678662 1.0980979972977951 -0.6339871743364757
-6.9739206450737825 1.0665451587821064 -0.615770134525746
-7.191972045258863 1.0455486630344542 -0.6036478020538
-7.495816066217537 1.0277267332723037 -0.5933583061081438
-7.995761079743613 1.01498078959099 -0.5859994320926614
-8.991311623410787 1.0197830818750202 -0.5887720368355736
-9.556871048975157 0.991930980526925 -0.5726916186247539
-10.068328033825837 0.9474640970302597 -0.5470186514679303
-10.530247874681356 0.9041526905199383 -0.5220127992602147
-10.947347935380515 0.8579627801026147 -0.4953450420469281
-11.348003052395171 0.8233474821742224 -0.4753598904698916
-11.576028650881959 0.7978494413389109 -0.46063858972981614
-11.759103328493861 0.767429896706031 -0.4430758574473971
-11.756429236925921 0.7397656831816736 -0.4271039163221899
-11.88580500494376 0.7115390876079541 -0.4108072837693961
-11.774496236619218 0.6951356948274598 -0.40133678053195454
-11.86488422390361 0.7942465591254272 -0.45855846471400286
-10.16267722356655 0.8637507982444794 -0.4986867558792082
-7.601056604431793 1.0572109784776078 -0.6103810430142792
-6.016428630273638 1.1455859025362074 -0.6614043292091248
-4.839510319977898 1.2055448990319044 -0.6960216719762555
-3.7273671214605484 1.2693871441066 -0.7328810093558012
-2.5915773120082224 1.3215975122478383 -0.763024679456635
-1.428843658697953 1.3944736488833267 -0.8050997365606344
0.20555938727887754 0.14013638526298586 -0.0809077797548466
0.2712546588464249 0.2258260282519476 -0.13038071820128697
-0.2999723310307957 0.1694564827339114 -0.09783574592235166
0.013901878995706208 0.024586413768584354 -0.014194972607699806
0.32495014862507376 0.03169294154050839 -0.01829792832982373
-0.008028316323024772 0.1315814054127914 -0.07596855983542496
-0.7558538871935979 0.4012263423591526 -0.23164813676702747
-1.9167052109293332 0.7474403251530314 -0.4315348729302873
-3.11354584386008 1.034436551790433 -0.5972322216357993
-4.279969478771074 1.2701421694276605 -0.7333169234281606
-5.034313841798385 1.375891869201896 -0.7943715410595381
-5.737707936939891 1.4755497448780726 -0.8519090424080452
-6.22974630874152 1.5084552163461904 -0.8709070252179747
-5.799184484369321 1.378392886637417 -0.7958155041491841
-5.618443154312887 1.2914204563430856 -0.7456019481066755
-5.574090536902346 1.2403917949702434 -0.7161405367266785
-5.343107786877489 1.1875219094090466 -0.6856160940658966
-5.612193519652268 1.2066275252256125 -0.6966467265006246
-5.451572599134841 1.1702338403709205 -0.6756348227529656
-5.786603746162984 1.164621186972081 -0.6723943558022776
-5.847481698986785 1.1553609155038882 -0.6670479355773473
-5.859260932308041 1.1143478094767922 -0.6433690077723007
-5.721025178914498 1.0818614817723022 -0.6246130177271308
-5.896065479480432 1.0811552211164932 -0.6242052579473815
-6.211645809292838 1.0918260827326836 -0.6303660827739742
-6.492954069548585 1.0945039096694897 -0.6319121268767826
-6.933504596678662 1.0980979972977951 -0.6339871743364757
-6.9739206450737825 1.0665451587821064 -0.615770134525746
-7.191972045258863 1.0455486630344542 -0.6036478020538
-7.495816066217537 1.0277267332723037 -0.5933583061081438
-7.995761079743613 1.01498078959099 -0.5859994320926614
-8.991311623410787 1.0197830818750202 -0.5887720368355736
-9.556871048975157 0.991930980526925 -0.5726916186247539
-10.068328033825837 0.9474640970302597 -0.5470186514679303
-10.530247874681356 0.9041526905199383 -0.5220127992602147
-10.947347935380515 0.8579627801026147 -0.4953450420469281
-11.348003052395171 0.8233474821742224 -0.4753598904698916
-11.576028650881959 0.7978494413389109 -0.46063858972981614
-11.759103328493861 0.767429896706031 -0.4430758574473971
-11.756429236925921 0.7397656831816736 -0.4271039163221899
-11.88580500494376 0.7115390876079541 -0.4108072837693961
-11.774496236619218 0.6951356948274598 -0.40133678053195454
-11.86488422390361 0.7942465591254272 -0.45855846471400286
-10.16267722356655 0.8637507982444794 -0.4986867558792082
-7.601056604431793 1.0572109784776078 -0.6103810430142792
-6.016428630273638 1.1455859025362074 -0.6614043292091248
-4.839510319977898 1.2055448990319044 -0.6960216719762555
-3.7273671214605484 1.2693871441066 -0.7328810093558012
-2.5915773120082224 1.3215975122478383 -0.763024679456635
-1.428843658697953 1.3944736488833267 -0.8050997365606344

VECTORS D float
0.20461017110283497 0.1450999336064023 -0.07377844471805776
0.24134807402703695 0.254844817247969 -0.1290056518454703
0.0016907632652701805 0.0023626719764338095 -0.001192562267221818
0.01445163824979187 0.025063156206494536 -0.012618420987144706
0.06454943880902309 0.1333258743038014 -0.06696006699700352
0.04883180542093654 0.11656253567482497 -0.058401445717169334
0.06324740627494647 0.17036764751420477 -0.08516407364275884
0.07883204932609347 0.23512661647676592 -0.1172692953560829
0.08585295418060064 0.2794273082301889 -0.13904185273313543
0.08982466369350231 0.31663340364114645 -0.15728830098798371
0.08778979037582178 0.331450159491354 -0.16422975875394263
0.08934426551037916 0.3591065017920162 -0.1774679370801332
0.08590464374396058 0.3658438617810402 -0.18031949483006599
0.08289179857342903 0.373283016588728 -0.18355957499650377
0.0769739129622655 0.3635892620648723 -0.17804089630827444
0.07310912935286608 0.3615211117109465 -0.17618356553396933
0.07387914438339825 0.38169021565184574 -0.1850326672608885
0.07336303125637748 0.3952300525823813 -0.19050014502881027
0.07377237697888309 0.4137363660459197 -0.19819904989415252
0.06722372184290436 0.39201206481944845 -0.1865824383982943
0.0667359808007565 0.40444159813198555 -0.19122102212072148
0.06197590063251783 0.3904004758218275 -0.18335042280201683
0.060842406934110096 0.39426721428505374 -0.18250477011644373
0.05940352539847888 0.4010494702325124 -0.18408603702086326
0.05758621965390711 0.40659234243608366 -0.18506859760326358
0.05564042462647079 0.41259952535585603 -0.18628308642737912
0.05284914102670089 0.4210638303618494 -0.18917832995975473
0.05058164159901693 0.43065587269687367 -0.19242159682683757
0.04775353239441333 0.4378409898597265 -0.19479807937557414
0.04477995502235698 0.4458525720245019 -0.19777990851233052
0.04117880859438653 0.4494007483510486 -0.19776674884265608
0.0369254564913807 0.4480477345495226 -0.19714364348199243
0.03322175324399504 0.4530070611548116 -0.199566971170718
0.02902880054838311 0.45037140340908705 -0.19888005732594197
0.02548653027257127 0.45652965905673154 -0.20228258736770985
0.022087775565105893 0.4690105467140236 -0.20928055261707457
0.019162620532894695 0.5009456829136518 -0.22453218705355332
0.016612377032892152 0.5383822618731551 -0.24289629717046696
0.013647740306013897 0.568880450710929 -0.2583958032548922
0.010628501414047352 0.6013441092066403 -0.2750112708835158
0.007463854679027451 0.6261764432093242 -0.28830781985629844
0.004440570281672459 0.6601143493316628 -0.30593328855687957
0.0016847520956555194 0.8076824044048148 -0.3766727316003312
-0.0018551973050063984 0.9165581202873365 -0.42995752448713614
-0.007168106125203968 1.139586274151517 -0.5369259240624413
-0.011290086624498076 1.2363416327979746 -0.5855695189017499
-0.015042863403946838 1.2986002095955351 -0.6179065586464826
-0.018628007185908436 1.359929449012068 -0.6496964234467512
-0.021796037370211404 1.4044905061177022 -0.6733004326079922
-0.025048253629219305 1.4665362444617691 -0.7050835218073561
0.20461017110283497 0.1450999336064023 -0.07377844471805776
0.24134807402703695 0.254844817247969 -0.1290056518454703
0.0016907632652701805 0.0023626719764338095 -0.001192562267221818
0.01445163824979187 0.025063156206494536 -0.012618420987144706
0.06454943880902309 0.1333258743038014 -0.06696006699700352
0.04883180542093654 0.11656253567482497 -0.058401445717169334
0.06324740627494647 0.17036764751420477 -0.08516407364275884
0.07883204932609347 0.23512661647676592 -0.1172692953560829
0.08585295418060064 0.2794273082301889 -0.13904185273313543
0.08982466369350231 0.31663340364114645 -0.15728830098798371
0.08778979037582178 0.331450159491354 -0.16422975875394263
0.08934426551037916 0.3591065017920162 -0.1774679370801332
0.08590464374396058 0.3658438617810402 -0.18031949483006599
0.08289179857342903 0.373283016588728 -0.18355957499650377
0.0769739129622655 0.3635892620648723 -0.17804089630827444
0.07310912935286608 0.3615211117109465 -0.17618356553396933
0.07387914438339825 0.38169021565184574 -0.1850326672608885
0.07336303125637748 0.3952300525823813 -0.19050014502881027
0.07377237697888309 0.4137363660459197 -0.19819904989415252
0.06722372184290436 0.39201206481944845 -0.1865824383982943
0.0667359808007565 0.40444159813198555 -0.19122102212072148
0.06197590063251783 0.3904004758218275 -0.18335042280201683