# vtk DataFile Version 4.0
[MyVLM domain - lattices] 
ASCII
DATASET UNSTRUCTURED_GRID
POINTS 152 float
0.0018916144324157278 -0.005521560646483332 0.008484243670807296
0.0010688609733395774 -0.009554518871467176 0.00985094272720562
0.00045780959861706216 -0.013511842923527743 0.011210363514512812
-0.00013255382275044122 -0.017405477019606607 0.012425983008371139
-0.0007201482309470062 -0.021230406268001337 0.013555121683232115
-0.0011946371146526612 -0.024999667653060744 0.014448766126118536
-0.0014108622120167862 -0.028739740996327895 0.014804250591825344
-0.0013224843579428829 -0.0324285510689424 0.014873896100822218
-0.0010167791708201568 -0.03603387607455583 0.015025999470660663
-0.0006138083932142036 -0.03957726780709519 0.01501422256953675
-0.00020084691410191335 -0.043048774735932126 0.014952311913024933
0.0001698744379422134 -0.04643589468507109 0.01498316802665265
0.0004739400232210948 -0.04974504799726233 0.015033406056982992
0.0007082255455298663 -0.05298336445641297 0.01502153220105012
0.0008836440760600275 -0.056149819428919015 0.01495925807453887
0.001017516815515788 -0.059239249731705294 0.01490559913004728
0.0011275777072549662 -0.06224692638589038 0.014914607843528459
0.0012277625198140337 -0.06517166765511252 0.014999791523405461
0.00132638558954348 -0.06801642160751131 0.015127453596650846
0.0014271324949937316 -0.07078553072379426 0.015247959281653792
0.0015306083418583354 -0.07348186159698104 0.015328543270268747
0.0016355657532635378 -0.07610547929427583 0.015368461840948656
0.0017398364473795213 -0.07865462860558803 0.015387777136831655
0.0018410131526058282 -0.08112727924441206 0.015409695438865936
0.001936923789896676 -0.08352193904047096 0.015451272331361674
0.0020259353317291845 -0.08583777454056539 0.015522034227979507
0.0021071205190511294 -0.08807456532634361 0.015624500522008132
0.002180316672546981 -0.0902326296221212 0.015755033892876535
0.0022461021518325993 -0.0923127318130398 0.01590489737843616
0.0023056987632523672 -0.09431596761378597 0.016061566902510965
0.0023607022647827588 -0.09624353385127989 0.016211362670805786
0.0024126938092907785 -0.09809641934744652 0.01634298239700008
0.0024629658139780817 -0.09987520827207011 0.01644974898990648
0.0025123806343549317 -0.10158000557203534 0.016530462901143964
0.0025613283706516186 -0.10321045087808679 0.016589243170150085
0.0026097549007438213 -0.1047657923017731 0.016634683921250257
0.0026572361369983943 -0.1062449974191509 0.016678585814115084
0.002703078927872171 -0.10764695659062733 0.016733632087329125
0.0027464329900004744 -0.10897097223595269 0.01680779611963059
0.0027864017842759935 -0.11021716436858689 0.01689970615089674
0.0028221433614242725 -0.1113865105414524 0.01699818870009454
0.0028529549202113143 -0.11248063816261636 0.017084642407898618
0.002878337166053322 -0.11350154673767567 0.017136212820757203
0.0028980365508205295 -0.1144516965525376 0.01712477874206959
0.0029120651374179955 -0.11533412193994631 0.017015657589866947
0.002920699186668212 -0.1161519140462202 0.016773517400054134
0.0029244586304951574 -0.11690739723675592 0.016371790554576427
0.002924070395798875 -0.11760137001259328 0.015801350144785287
0.0029204190990956736 -0.11823262628861264 0.015075981786680149
0.0029144889643634465 -0.11879784986274838 0.014233589843316585
0.002907300946956263 -0.11929188276235175 0.013333130211846698
0.006212993241944028 -0.00679362654085097 -0.006055536034373131
0.0072288922610571306 -0.01118063861897134 -0.008735691037319337
0.007974780507892725 -0.015360423019446172 -0.009919003667677619
0.008270023946844132 -0.019382037672551332 -0.01016620863436632
0.008140225139500825 -0.023268267306483355 -0.009737736572376006
0.007751519283975376 -0.027052624055611117 -0.00901663293032008
0.007318662739924205 -0.030775983487828305 -0.008470107587128599
0.0069707766105224795 -0.03442586275245746 -0.007955480906670306
0.006702226685381192 -0.03797649281296994 -0.007178211453631459
0.006460614097576536 -0.041454126698308974 -0.006438372721938668
0.006208498480286784 -0.044852502172936376 -0.005664387031858544
0.005928720355726676 -0.04816204286295839 -0.00474679592891467
0.00562110152420414 -0.05139146316039283 -0.0037852053696572803
0.005297776270156929 -0.05454969645365368 -0.00288172445089903
0.004977662142563614 -0.05763713716465714 -0.0020408614357717773
0.004680078492205027 -0.06064974570625494 -0.001216443631888915
0.0044193472589770496 -0.06358370222243591 -0.00036480988525393077
0.0042022226504668725 -0.06643856419883307 0.000519097766492687
0.004028605706719037 -0.06921785719340774 0.0013949820114563707
0.003894567528214928 -0.07192632752247195 0.002208592205945512
0.003794542923454683 -0.07456707856221739 0.0029244565977737348
0.0037223892098821663 -0.07714026602383513 0.0035407953998830275
0.0036720478837599236 -0.07964410077445734 0.0040780584945291866
0.0036379885391020494 -0.08207641428831064 0.004561032244721768
0.003615480687410345 -0.08443549091070425 0.005009326673310183
0.003600729157216099 -0.08672020639818681 0.005435791941744133
0.0035909263662617956 -0.08892999870145044 0.005846852303009746
0.003584242976167935 -0.09106480860209666 0.006243184626498725
0.00357976601221264 -0.09312500094017721 0.0066206187713376205
0.003577378730160166 -0.0951112622302175 0.006971307840594386
0.0035774796054096774 -0.09702438157041886 0.007286232400555628
0.003580588564800478 -0.09886495129520066 0.0075586220378275875
0.0035870678637920984 -0.10063317874432605 0.007786106848072685
0.0035969747054953923 -0.10232881872566318 0.007971489390182355
0.0036100119296844893 -0.10395119305930857 0.00812252129592381
0.0036255480079795204 -0.10549926862993864 0.008251011127480997
0.0036426825552804717 -0.10697177128328156 0.008371522534821926
0.0036603380175139954 -0.10836739077767452 0.00849903164868246
0.003677362157174432 -0.10968527049060929 0.00864332970913479
0.0036926294639041822 -0.11092541228169142 0.008804395460790614
0.0037051326977571345 -0.11208871477458031 0.00897195758822257
0.003714058455611533 -0.11317676313748333 0.00912789753591113
0.003718842962038476 -0.11419154804773272 0.009249461757831296
0.003719206248598144 -0.11513555048800206 0.009308292492262046
0.003715164522496519 -0.11601185065403193 0.009269182940785447
0.0037070218583473346 -0.11682360602721253 0.009096042925966486
0.003695343396461056 -0.11757322288569573 0.008761368562674603
0.003680913018392471 -0.11826159225772409 0.008254975351494049
0.0036646790161518838 -0.11888760629361952 0.0075895260721886605
0.003647691596346039 -0.11944804800452877 0.006801791075608764
0.0036310361855396924 -0.11993785516413838 0.005949631873285421
0.005410766489344848 -0.008624859374677179 -0.003254811852133062
0.005892211109850776 -0.012836193338780935 -0.004362847234159055
0.006132458642509649 -0.01689308775239086 -0.004577411297905984
0.006047255650667177 -0.020823349778089 -0.004216341366077968
0.005720055990603616 -0.024649093500918186 -0.0035324025873421996
0.005325630843128663 -0.028403153909963366 -0.00290090060430027
0.005016871435172548 -0.032096728848265955 -0.002449827348593644
0.004834968294868498 -0.03570868672997255 -0.0019376476886778008
0.004732241848104854 -0.039237875301935975 -0.0013511913108141208
0.00464908530328423 -0.042693241144595426 -0.000792718097353743
0.004547585503985086 -0.04606603806608593 -0.0001622586178302563
0.004411660012619469 -0.04935518259404839 0.0005525712734899737
0.004242349868979272 -0.05256898641197684 0.0012567685995455232
0.00405227310746894 -0.055711710592533055 0.0019016290769470704
0.003859297849485217 -0.05878121472167007 0.0025116177502005105
0.0036804214720396232 -0.06177331498795853 0.0031345558027683993
0.003527506244425096 -0.06468567416310123 0.003797157876331275
0.003405829147614405 -0.06751966917991829 0.0044836855567379355
0.003315379723667389 -0.07027931330986809 0.005148266941313788
0.003253134023982613 -0.07296845132185542 0.0057469561203850345
0.003214621311891553 -0.0755886718311768 0.0062615951380234625
0.0031948391851961662 -0.07813915103684266 0.006701600082627121
0.0031888698585714084 -0.080617931629788 0.007089343099181306
0.0031922930777549615 -0.08302311673524097 0.007446505565540434
0.003201436081938149 -0.0853533506884637 0.0077885828005630165
0.0032135028026517493 -0.0876078693957276 0.00812430843553116
0.003226618152360912 -0.08978645210738827 0.008456205650426261
0.0032398057236901635 -0.09188934875774783 0.008781417683102716
0.003252904392775423 -0.09391718611725124 0.009092780514592894
0.003266372004343082 -0.09587080410837187 0.00938069378709585
0.0032809500730880004 -0.09775099397444813 0.009636113547869439
0.0032973286136308236 -0.0995582522172621 0.009853364755575923
0.0033159342695244357 -0.10129265078175916 0.010031625075726946
0.0033368336138182735 -0.1029538114756297 0.01017521726620157
0.0033597203855484335 -0.10454095353095019 0.010293065545201846
0.0033839603409402744 -0.1060529886825731 0.010397608840284265
0.003408672097906746 -0.10748868002408084 0.010502985056494671
0.0034328265552422406 -0.10884698907892894 0.010621064035051433
0.0034553512046890385 -0.11012752311518022 0.010756334722537944
0.003475228953835527 -0.1113307570098568 0.010903369249753854
0.0034915839677176984 -0.11245794780503246 0.011047799560049283
0.0035037495424018335 -0.11351088980699253 0.011169116638735389
0.0035113151685979642 -0.11449181736217721 0.011241781789138355
0.003514151750190315 -0.11540350273982324 0.01123410782888488
0.003512415433327221 -0.11624905075373748 0.01111060657377211
0.0035065316976985676 -0.11703122475271262 0.01083969280256923
0.0034971622838568268 -0.11775165158495107 0.01040277155523346
0.003485158199815951 -0.1184101989944046 0.009801354525314197
0.0034715024876191118 -0.11900467988072574 0.009060440384173626
0.003457246657122113 -0.1195309302663877 0.008227623612730729

CELLS 100 350
4 0 51 52 1
4 1 52 53 2
4 2 53 54 3
4 3 54 55 4
4 4 55 56 5
4 5 56 57 6
4 6 57 58 7
4 7 58 59 8
4 8 59 60 9
4 9 60 61 10
4 10 61 62 11
4 11 62 63 12
4 12 63 64 13
4 13 64 65 14
4 14 65 66 15
4 15 66 67 16
4 16 67 68 17
4 17 68 69 18
4 18 69 70 19
4 19 70 71 20
4 20 71 72 21
4 21 72 73 22
4 22 73 74 23
4 23 74 75 24
4 24 75 76 25
4 25 76 77 26
4 26 77 78 27
4 27 78 79 28
4 28 79 80 29
4 29 80 81 30
4 30 81 82 31
4 31 82 83 32
4 32 83 84 33
4 33 84 85 34
4 34 85 86 35
4 35 86 87 36
4 36 87 88 37
4 37 88 89 38
4 38 89 90 39
4 39 90 91 40
4 40 91 92 41
4 41 92 93 42
4 42 93 94 43
4 43 94 95 44
4 44 95 96 45
4 45 96 97 46
4 46 97 98 47
4 47 98 99 48
4 48 99 100 49
4 49 100 101 50
1 102
1 103
1 104
1 105
1 106
1 107
1 108
1 109
1 110
1 111
1 112
1 113
1 114
1 115
1 116
1 117
1 118
1 119
1 120
1 121
1 122
1 123
1 124
1 125
1 126
1 127
1 128
1 129
1 130
1 131
1 132
1 133
1 134
1 135
1 136
1 137
1 138
1 139
1 140
1 141
1 142
1 143
1 144
1 145
1 146
1 147
1 148
1 149
1 150
1 151

CELL_TYPES 100
9
9
9
9
9
9
9
9
9
9
9
9
9
9
9
9
9
9
9
9
9
9
9
9
9
9
9
9
9
9
9
9
9
9
9
9
9
9
9
9
9
9
9
9
9
9
9
9
9
9
1
1
1
1
1
1
1
1
1
1
1
1
1
1
1
1
1
1
1
1
1
1
1
1
1
1
1
1
1
1
1
1
1
1
1
1
1
1
1
1
1
1
1
1
1
1
1
1
1
1

CELL_DATA 100

VECTORS S float
-9.8074697237183e-19 -2.5466620654487e-19 -9.2466861958191e-19
-9.856627513616999e-20 -4.0359510657032997e-19 -7.860661832008999e-20
4.58850762067e-21 -1.0036850219380999e-19 -1.8001001025e-21
-1.22441266746e-21 -3.2936630262919995e-20 -1.83138770697e-21
-1.431462122947e-20 2.3928020096271e-19 4.96976407038e-21
1.488558288059e-20 -7.742952613525299e-19 -2.844684309803e-20
3.9016358690019995e-20 -2.38679594442449e-18 -9.428187340965999e-20
-6.1328618186899994e-21 4.126157643732e-19 1.7358323640169998e-20
-3.7902650343759996e-20 2.7013588558450097e-18 1.2062103829644e-19
3.321794589837e-20 -2.43149979311202e-18 -1.1470985214475e-19
2.8600612523383e-19 -2.12565901315994e-17 -1.05616780381426e-18
-1.0401727625615e-19 7.72805212859638e-18 4.0271547197861e-19
1.539077295483e-20 -1.14721969088763e-18 -6.246627514457e-20
8.763483644615e-20 -6.44928880105912e-18 -3.6533006311983e-19
-1.9760414842027e-19 1.472575975573902e-17 8.6609593341852e-19
-1.2553557468959e-19 9.51371748846172e-18 5.7949171394361e-19
5.663739434177e-20 -4.33159610815599e-18 -2.7252589334548e-19
-1.7486759402876e-19 1.368418378652345e-17 8.8773715009685e-19
-3.736333621955e-20 2.89481850843311e-18 1.9814549715487e-19
7.59750551089e-20 -5.94406584610664e-18 -4.1440951411629e-19
-2.3020366643234e-19 1.861461719833282e-17 1.320314029696e-18
-2.255005279536e-20 1.92061402839786e-18 1.3833954743646e-19
-2.1309392343757e-19 1.8741520492899988e-17 1.36658412629795e-18
7.130546293049e-20 -6.47158039322232e-18 -4.7616778963144e-19
7.641562896456e-20 -7.216961064255329e-18 -5.3392689869986e-19
-3.621921626786e-20 3.5725897164259695e-18 2.6471884628777e-19
-1.5804167380463e-19 1.646358354844353e-17 1.2169870504394899e-18
1.679148872814e-19 -1.86384945780099e-17 -1.36909259051684e-18
-4.066794592336e-20 4.85012524085518e-18 3.527268350881e-19
1.642006528073e-20 -2.11958437942407e-18 -1.5211303627461e-19
-7.108464605246e-20 9.86059751944777e-18 6.9628485175852e-19
-4.566676751506e-20 6.9218008204282795e-18 4.7985365814305e-19
-1.156807036288e-20 1.89975504040818e-18 1.2906427444856998e-19
-6.556199603414e-20 1.147526935331439e-17 7.630019328374299e-19
-2.64223554685e-21 5.166332041111799e-19 3.3446994018419995e-20
9.54709451834e-21 -1.97249974685312e-18 -1.2406695283787e-19
-2.2441724226379998e-20 4.80559931008966e-18 2.9374355623902e-19
-6.981370916512999e-20 1.536834115562972e-17 9.1343350648378e-19
-5.66332581625e-20 1.287734742640538e-17 7.4484323553282e-19
2.913500748562e-20 -6.7205188480104396e-18 -3.7867131877290997e-19
4.098862831312e-20 -9.685239960925219e-18 -5.3226250931544e-19
4.517314465087e-20 -1.061789087040769e-17 -5.698968813822699e-19
-8.331584983109999e-21 1.59781779254698e-18 8.386877121895999e-20
-1.080374864769e-20 1.68881251247408e-18 8.683753169489999e-20
-3.3525637408199998e-21 3.9028972836936e-19 1.96924554173e-20
-1.8401158954144998e-19 1.7261881729092218e-17 8.563948608821199e-19
-1.4248453441564e-19 1.1181275293629269e-17 5.465630410208199e-19
-4.804484349931e-20 2.95507901936576e-18 1.425881660577e-19
-3.6874223824629996e-19 1.71372426572495e-17 8.1771981868049e-19
-8.8584135823099e-19 2.152710802905358e-17 1.01632607423724e-18
-9.8074697237183e-19 -2.5466620654487e-19 -9.2466861958191e-19
-9.856627513616999e-20 -4.0359510657032997e-19 -7.860661832008999e-20
4.58850762067e-21 -1.0036850219380999e-19 -1.8001001025e-21
-1.22441266746e-21 -3.2936630262919995e-20 -1.83138770697e-21
-1.431462122947e-20 2.3928020096271e-19 4.96976407038e-21
1.488558288059e-20 -7.742952613525299e-19 -2.844684309803e-20
3.9016358690019995e-20 -2.38679594442449e-18 -9.428187340965999e-20
-6.1328618186899994e-21 4.126157643732e-19 1.7358323640169998e-20
-3.7902650343759996e-20 2.7013588558450097e-18 1.2062103829644e-19
3.321794589837e-20 -2.43149979311202e-18 -1.1470985214475e-19
2.8600612523383e-19 -2.12565901315994e-17 -1.05616780381426e-18
-1.0401727625615e-19 7.72805212859638e-18 4.0271547197861e-19
1.539077295483e-20 -1.14721969088763e-18 -6.246627514457e-20
8.763483644615e-20 -6.44928880105912e-18 -3.6533006311983e-19
-1.9760414842027e-19 1.472575975573902e-17 8.6609593341852e-19
-1.2553557468959e-19 9.51371748846172e-18 5.7949171394361e-19
5.663739434177e-20 -4.33159610815599e-18 -2.7252589334548e-19
-1.7486759402876e-19 1.368418378652345e-17 8.8773715009685e-19
-3.736333621955e-20 2.89481850843311e-18 1.9814549715487e-19
7.59750551089e-20 -5.94406584610664e-18 -4.1440951411629e-19
-2.3020366643234e-19 1.861461719833282e-17 1.320314029696e-18
-2.255005279536e-20 1.92061402839786e-18 1.3833954743646e-19
-2.1309392343757e-19 1.8741520492899988e-17 1.36658412629795e-18
7.130546293049e-20 -6.47158039322232e-18 -4.7616778963144e-19
7.641562896456e-20 -7.216961064255329e-18 -5.3392689869986e-19
-3.621921626786e-20 3.5725897164259695e-18 2.6471884628777e-19
-1.5804167380463e-19 1.646358354844353e-17 1.2169870504394899e-18
1.679148872814e-19 -1.86384945780099e-17 -1.36909259051684e-18
-4.066794592336e-20 4.85012524085518e-18 3.527268350881e-19
1.642006528073e-20 -2.11958437942407e-18 -1.5211303627461e-19
-7.108464605246e-20 9.86059751944777e-18 6.9628485175852e-19
-4.566676751506e-20 6.9218008204282795e-18 4.7985365814305e-19
-1.156807036288e-20 1.89975504040818e-18 1.2906427444856998e-19
-6.556199603414e-20 1.147526935331439e-17 7.630019328374299e-19
-2.64223554685e-21 5.166332041111799e-19 3.3446994018419995e-20
9.54709451834e-21 -1.97249974685312e-18 -1.2406695283787e-19
-2.2441724226379998e-20 4.80559931008966e-18 2.9374355623902e-19
-6.981370916512999e-20 1.536834115562972e-17 9.1343350648378e-19
-5.66332581625e-20 1.287734742640538e-17 7.4484323553282e-19
2.913500748562e-20 -6.7205188480104396e-18 -3.7867131877290997e-19
4.098862831312e-20 -9.685239960925219e-18 -5.3226250931544e-19
4.517314465087e-20 -1.061789087040769e-17 -5.698968813822699e-19
-8.331584983109999e-21 1.59781779254698e-18 8.386877121895999e-20
-1.080374864769e-20 1.68881251247408e-18 8.683753169489999e-20
-3.3525637408199998e-21 3.9028972836936e-19 1.96924554173e-20
-1.8401158954144998e-19 1.7261881729092218e-17 8.563948608821199e-19
-1.4248453441564e-19 1.1181275293629269e-17 5.465630410208199e-19
-4.804484349931e-20 2.95507901936576e-18 1.425881660577e-19
-3.6874223824629996e-19 1.71372426572495e-17 8.1771981868049e-19
-8.8584135823099e-19 2.152710802905358e-17 1.01632607423724e-18

SCALARS Gamma float
LOOKUP_TABLE default
-0.00010682948340661858
-0.001946492851319016
0.0034544662832597063
-0.007240418611445869
0.00811093980761498
0.05371213942729867
0.10339925405339112
0.14856896769753744
0.19586267252849351
0.22888716124238412
0.2461360205074081
0.25566508391391585
0.25688160059014314
0.2312553695908397
0.218119473419906
0.2114130295394612
0.20118103544849425
0.19979568395455283
0.1970276149199095
0.19445688692387428
0.19621436539162923
0.19600118858257226
0.19101444819307167
0.1892373739509087
0.18778115928821631
0.18754002980878964
0.1883090955911553
0.18873499059418225
0.18985708997601808
0.19138658592834665
0.18961194557240665
0.19501426390777266
0.19220654503532308
0.18934856197134983
0.1922569716151009
0.18828884102895618
0.18384760997356012
0.17894460762268707
0.17367440316827762
0.16584403548542628
0.15948780980290142
0.14839694863900355
0.13280088177618002
0.11277483826328559
0.09640257224780013
0.07995455581193228
0.06765726845451761
0.053912546207255815
0.04089068029127357
0.022026821834760388
-0.00010682948340661858
-0.001946492851319016
0.0034544662832597063
-0.007240418611445869
0.00811093980761498
0.05371213942729867
0.10339925405339112
0.14856896769753744
0.19586267252849351
0.22888716124238412
0.2461360205074081
0.25566508391391585
0.25688160059014314
0.2312553695908397
0.218119473419906
0.2114130295394612
0.20118103544849425
0.19979568395455283
0.1970276149199095
0.19445688692387428
0.19621436539162923
0.19600118858257226
0.19101444819307167
0.1892373739509087
0.18778115928821631
0.18754002980878964
0.1883090955911553
0.18873499059418225
0.18985708997601808
0.19138658592834665
0.18961194557240665
0.19501426390777266
0.19220654503532308
0.18934856197134983
0.1922569716151009
0.18828884102895618
0.18384760997356012
0.17894460762268707
0.17367440316827762
0.16584403548542628
0.15948780980290142
0.14839694863900355
0.13280088177618002
0.11277483826328559
0.09640257224780013
0.07995455581193228
0.06765726845451761
0.053912546207255815
0.04089068029127357
0.022026821834760388

VECTORS Ftot float
0.08618249398248695 -2.97810200343092e-16 -0.09140920136664177
0.09775039126983515 -3.993350130553822e-16 -0.12257100186318948
-0.018787617952491443 -1.560257127099167e-16 -0.04789018567881099
0.1408018635351333 -3.066942094450264e-16 -0.0941360393863142
-0.06626730993833096 -6.21860661204542e-16 -0.1908725300092211
-0.8546177135299489 -1.456979066903735e-15 -0.44720191840358037
-1.9102930938337204 -2.5755393614719136e-15 -0.7905303305570914
-3.094929996878517 -3.5625082824079765e-15 -1.093468378792263
-4.519129234147659 -4.6264825860367215e-15 -1.4200422881388453
-5.771445515152511 -5.445105613080561e-15 -1.671308621649963
-6.71872711943103 -5.92760242095711e-15 -1.8194051200880237
-7.49395947860129 -6.3062060500960236e-15 -1.9356128770225765
-8.037159241488428 -6.451594292700207e-15 -1.9802380212561768
-7.676405892419285 -5.999277526837431e-15 -1.8414049178748078
-7.654661080056707 -5.6899136943635994e-15 -1.7464494703260738
-7.8128818355905825 -5.51417436332655e-15 -1.6925084304278506
-7.798847922293454 -5.280506711182565e-15 -1.620787000325413
-8.101669364813414 -5.1993506720293e-15 -1.5958771459398566
-8.33380882306596 -5.1198192423046246e-15 -1.5714659455635618
-8.550001575396722 -5.1068976640579706e-15 -1.5674998250392729
-8.950729228647656 -5.084439356106489e-15 -1.5606065218833503
-9.257867125097055 -4.916565278962435e-15 -1.5090796255439318
-9.31811761250676 -4.733828671612087e-15 -1.452990857197175
-9.515128743057431 -4.642234903274733e-15 -1.4248772694012124
-9.71540477418838 -4.530132919423237e-15 -1.390468935490298
-9.96723151627122 -4.443021219735757e-15 -1.3637310638896953
-10.26536341908628 -4.3431981813713365e-15 -1.3330916022313266
-10.537720845061257 -4.2106847348426774e-15 -1.2924182193063254
-10.84195672095236 -4.0725934582038445e-15 -1.2500327895973575
-11.163457207489639 -3.926058896186774e-15 -1.2050557966294881
-11.281541123530992 -3.752381131366321e-15 -1.151747529286424
-11.821974743951339 -3.665482436860393e-15 -1.125075037023098
-11.857275315827522 -3.4624972358814368e-15 -1.0627712103262363
-11.873233786381327 -3.3238789757446576e-15 -1.020224029472999
-12.25454814445305 -3.15399786503735e-15 -0.9680810987099049
-12.174056971838171 -3.0521093575023776e-15 -0.9368076665323595
-12.046389815801904 -2.998433626352481e-15 -0.9203325568432685
-11.872211231161952 -2.956276447055267e-15 -0.907392925873647
-11.65772877885379 -2.887821005149415e-15 -0.8863813645953376
-11.253491213713199 -2.8209127401482426e-15 -0.8658446903594019
-10.931894479342827 -2.742727070295067e-15 -0.8418465545287247
-10.266611689054614 -2.6513119800383463e-15 -0.8137878097859338
-9.264300713084952 -2.998400531070713e-15 -0.9203223986509972
-7.927078821921377 -3.2131413566039453e-15 -0.9862344706357452
-6.821790568637617 -3.783774179063395e-15 -1.1613832416130956
-5.6923452872821585 -3.984850332569648e-15 -1.2231011095192585
-4.842990062103999 -4.113302965184768e-15 -1.2625280752419357
-3.876808120896903 -4.2558592894060065e-15 -1.3062839967376236
-2.9515248180573015 -4.3362514431334004e-15 -1.3309593858273845
-1.5928377164259206 -4.523182073883167e-15 -1.3883354584001621
0.08618249398248695 -2.97810200343092e-16 -0.09140920136664177
0.09775039126983515 -3.993350130553822e-16 -0.12257100186318948
-0.018787617952491443 -1.560257127099167e-16 -0.04789018567881099
0.1408018635351333 -3.066942094450264e-16 -0.0941360393863142
-0.06626730993833096 -6.21860661204542e-16 -0.1908725300092211
-0.8546177135299489 -1.456979066903735e-15 -0.44720191840358037
-1.9102930938337204 -2.5755393614719136e-15 -0.7905303305570914
-3.094929996878517 -3.5625082824079765e-15 -1.093468378792263
-4.519129234147659 -4.6264825860367215e-15 -1.4200422881388453
-5.771445515152511 -5.445105613080561e-15 -1.671308621649963
-6.71872711943103 -5.92760242095711e-15 -1.8194051200880237
-7.49395947860129 -6.3062060500960236e-15 -1.9356128770225765
-8.037159241488428 -6.451594292700207e-15 -1.9802380212561768
-7.676405892419285 -5.999277526837431e-15 -1.8414049178748078
-7.654661080056707 -5.6899136943635994e-15 -1.7464494703260738
-7.8128818355905825 -5.51417436332655e-15 -1.6925084304278506
-7.798847922293454 -5.280506711182565e-15 -1.620787000325413
-8.101669364813414 -5.1993506720293e-15 -1.5958771459398566
-8.33380882306596 -5.1198192423046246e-15 -1.5714659455635618
-8.550001575396722 -5.1068976640579706e-15 -1.5674998250392729
-8.950729228647656 -5.084439356106489e-15 -1.5606065218833503
-9.257867125097055 -4.916565278962435e-15 -1.5090796255439318
-9.31811761250676 -4.733828671612087e-15 -1.452990857197175
-9.515128743057431 -4.642234903274733e-15 -1.4248772694012124
-9.71540477418838 -4.530132919423237e-15 -1.390468935490298
-9.96723151627122 -4.443021219735757e-15 -1.3637310638896953
-10.26536341908628 -4.3431981813713365e-15 -1.3330916022313266
-10.537720845061257 -4.2106847348426774e-15 -1.2924182193063254
-10.84195672095236 -4.0725934582038445e-15 -1.2500327895973575
-11.163457207489639 -3.926058896186774e-15 -1.2050557966294881
-11.281541123530992 -3.752381131366321e-15 -1.151747529286424
-11.821974743951339 -3.665482436860393e-15 -1.125075037023098
-11.857275315827522 -3.4624972358814368e-15 -1.0627712103262363
-11.873233786381327 -3.3238789757446576e-15 -1.020224029472999
-12.25454814445305 -3.15399786503735e-15 -0.9680810987099049
-12.174056971838171 -3.0521093575023776e-15 -0.9368076665323595
-12.046389815801904 -2.998433626352481e-15 -0.9203325568432685
-11.872211231161952 -2.956276447055267e-15 -0.907392925873647
-11.65772877885379 -2.887821005149415e-15 -0.8863813645953376
-11.253491213713199 -2.8209127401482426e-15 -0.8658446903594019
-10.931894479342827 -2.742727070295067e-15 -0.8418465545287247
-10.266611689054614 -2.6513119800383463e-15 -0.8137878097859338
-9.264300713084952 -2.998400531070713e-15 -0.9203223986509972
-7.927078821921377 -3.2131413566039453e-15 -0.9862344706357452
-6.821790568637617 -3.783774179063395e-15 -1.1613832416130956
-5.6923452872821585 -3.984850332569648e-15 -1.2231011095192585
-4.842990062103999 -4.113302965184768e-15 -1.2625280752419357
-3.876808120896903 -4.2558592894060065e-15 -1.3062839967376236
-2.9515248180573015 -4.3362514431334004e-15 -1.3309593858273845
-1.5928377164259206 -4.523182073883167e-15 -1.3883354584001621

VECTORS D float
0.08557305547154784 0.0038294289778021376 -0.0918174786332914
0.08319504326220573 0.005305731141745975 -0.13156134776874923
0.015230974448136897 0.001257128903409478 -0.031269762551577256
0.052123947913260214 0.005267947994817807 -0.12959007890577195
0.05190476178665454 0.006212670796241135 -0.14961919743620714
0.051655528851577856 0.007151796242735472 -0.16763474486482552
0.06630795483054432 0.01044410900829046 -0.23695819001572788
0.07099999979926451 0.012613539019153725 -0.27474495549256456
0.07493594931299272 0.014914198962426552 -0.310462692817833
0.07776489478169077 0.0172224168231426 -0.34254348811406077
0.07762506135871469 0.019046843947317465 -0.36231904692269284
0.08119279886968951 0.021996270155285116 -0.4011340011621724
0.08143394734717731 0.024269569550974545 -0.42565683038200336
0.07902479360817315 0.025817407923030857 -0.43680663333471814
0.07226458845041356 0.025798192455143896 -0.4221451546619913
0.06703632205615301 0.02607489434935485 -0.413558519302963
0.06318284190501991 0.026703139907325233 -0.41129561668260445
0.059018670091091144 0.027032672614127312 -0.4050744157905301
0.05689894168036249 0.028986681567179522 -0.4127535027771279
0.0578281425808962 0.03168837759064462 -0.44391911954035823
0.05532476562692978 0.032553345693955425 -0.4493113694040947
0.04936659104075827 0.031159477093100307 -0.42455039557816343
0.04651509348963014 0.03148156022778986 -0.42448921454861294
0.04511529914776047 0.03274222797952013 -0.4382425646497778
0.04314058958254202 0.03358456242827742 -0.44778014499785496
0.04152946420618909 0.034698255815908886 -0.4625982206311793
0.03933382428233581 0.03529318314043955 -0.4723434696275853
0.03665442346694161 0.0353449745886178 -0.4766823649222028
0.03383339255363183 0.03508710303181706 -0.47855987317257953
0.03093456391088158 0.03453010384986398 -0.4778125725529767
0.028426323648724112 0.03418453663720133 -0.4812100696531013
0.02612044715589205 0.03388011413544888 -0.48622858546957154
0.02347028902184918 0.03288473010579538 -0.48194146739570276
0.021763961423142148 0.033006647772616214 -0.49453778378387153
0.01889353966879932 0.033739056723332335 -0.519651953983421
0.017495580046992577 0.03397169912656813 -0.5387585851190679
0.01645618638706147 0.0349078263791937 -0.5698294230211582
0.015372106435191312 0.03581551641341983 -0.6014142104916597
0.01399089330523796 0.03601462446091376 -0.6215811054671554
0.012653900347244933 0.036206673335296084 -0.6416090869506194
0.011207901674649124 0.035860304235719606 -0.651663885786205
0.009833181224930624 0.03538088727179368 -0.6584106993569544
0.01031502033200691 0.041954846665565475 -0.7982740064538343
0.009981690360573286 0.04610355604873204 -0.895378082878845
0.010491072352348632 0.055239184378105655 -1.093013228741376
0.009682374800720945 0.05830504649323841 -1.1731424293730945
0.008689069165856022 0.06000003161412408 -1.2251812926806993
0.007797932069436923 0.061870868829164254 -1.2796199081996165
0.006879564652623586 0.06277281492862338 -1.31244975494669
0.006232807273442436 0.06531419616855275 -1.3780070331676078
0.08557305547154784 0.0038294289778021376 -0.0918174786332914
0.08319504326220573 0.005305731141745975 -0.13156134776874923
0.015230974448136897 0.001257128903409478 -0.031269762551577256
0.052123947913260214 0.005267947994817807 -0.12959007890577195
0.05190476178665454 0.006212670796241135 -0.14961919743620714
0.051655528851577856 0.007151796242735472 -0.16763474486482552
0.06630795483054432 0.01044410900829046 -0.23695819001572788
0.07099999979926451 0.012613539019153725 -0.27474495549256456
0.07493594931299272 0.014914198962426552 -0.310462692817833
0.07776489478169077 0.0172224168231426 -0.34254348811406077
0.07762506135871469 0.019046843947317465 -0.36231904692269284
0.08119279886968951 0.021996270155285116 -0.4011340011621724
0.08143394734717731 0.024269569550974545 -0.42565683038200336
0.07902479360817315 0.025817407923030857 -0.43680663333471814
0.07226458845041356 0.025798192455143896 -0.4221451546619913
0.06703632205615301 0.02607489434935485 -0.413558519302963
0.06318284190501991 0.026703139907325233 -0.41129561668260445
0.059018670091091144 0.027032672614127312 -0.4050744157905301
0.05689894168036249 0.028986681567179522 -0.4127535027771279
0.0578281425808962 0.03168837759064462 -0.44391911954035823