# vtk DataFile Version 4.0
[MyVLM domain - lattices] 
ASCII
DATASET UNSTRUCTURED_GRID
POINTS 152 float
0.0018916144324157278 -0.005355823743456417 -0.008589829722844083
0.0010688609733395774 -0.004890071946090326 -0.012822523146478162
0.00045780959861706216 -0.004449688179459822 -0.016983592800794027
-0.00013255382275044122 -0.0039058927192780002 -0.021026166699374228
-0.0007201482309470062 -0.003312754942711002 -0.024969924486092556
-0.0011946371146526612 -0.0025297131655408426 -0.028763705891815337
-0.0014108622120167862 -0.00127126820986719 -0.03230359771387939
-0.0013224843579428829 0.0002245700237767451 -0.03567622847153946
-0.0010167791708201568 0.0016103937421402738 -0.03900804426069089
-0.0006138083932142036 0.0031185692940081913 -0.04221447064693092
-0.00020084691410191335 0.004641801627991266 -0.04533455983524927
0.0001698744379422134 0.006045295237145139 -0.04841737337788651
0.0004739400232210948 0.007398272739683109 -0.05143771630227505
0.0007082255455298663 0.008777605780709768 -0.05436760961773772
0.0008836440760600275 0.010172247002858523 -0.057211074233523264
0.001017516815515788 0.011526528186428 -0.059988371724597596
0.0011275777072549662 0.012789462598718616 -0.06271805974400581
0.0012277625198140337 0.013948309037557604 -0.06540477571008758
0.00132638558954348 0.015034852876908832 -0.06803695069283508
0.0014271324949937316 0.016095913717502304 -0.07059754375120231
0.0015306083418583354 0.01716239848781408 -0.0730753056831914
0.0016355657532635378 0.01823500872706237 -0.07546998114940875
0.0017398364473795213 0.019294820174858954 -0.07778845801734119
0.0018410131526058282 0.02031994276191851 -0.08003870362063459
0.001936923789896676 0.021294288260959592 -0.0822265735951415
0.0020259353317291845 0.022208870576556683 -0.08435533861211911
0.0021071205190511294 0.02306131321013296 -0.08642586364631112
0.002180316672546981 0.023855047181052975 -0.08843689990879566
0.0022461021518325993 0.024598313909266877 -0.0903854477680228
0.0023056987632523672 0.02530292713157464 -0.09226720737544189
0.0023607022647827588 0.02598179075298365 -0.09407748209372443
0.0024126938092907785 0.026645566017800625 -0.09581239154728255
0.0024629658139780817 0.027300551306582217 -0.09746964331306954
0.0025123806343549317 0.027947878131837044 -0.09904882555421256
0.0025613283706516186 0.028583661077419446 -0.10055135244653637
0.0026097549007438213 0.02919979345974017 -0.10198017458156608
0.0026572361369983943 0.02978514392783529 -0.1033393434397197
0.002703078927872171 0.03032774860985485 -0.10463321351423725
0.0027464329900004744 0.0308200863604069 -0.10586452227816892
0.0027864017842759935 0.0312634511362524 -0.10703279876976933
0.0028221433614242725 0.03166838268197678 -0.10813420683573262
0.0028529549202113143 0.032052427326754555 -0.10916236013451862
0.002878337166053322 0.032437143267387857 -0.11010941212418689
0.0028980365508205295 0.03284905672509024 -0.11096570804978814
0.0029120651374179955 0.03332088315840444 -0.11171934045821244
0.002920699186668212 0.03388595057640506 -0.11235817894618932
0.0029244586304951574 0.0345693197374817 -0.11287310214361679
0.002924070395798875 0.035379599891135545 -0.11326097653993705
0.0029204190990956736 0.036303787312640425 -0.11352653510388502
0.0029144889643634465 0.03730612749504388 -0.11368279141173226
0.002907300946956263 0.03833100839623028 -0.11374998659147563
0.006212993241944028 0.008359290102243329 -0.0035979365234371495
0.0072288922610571306 0.0126423668705694 -0.0064412372831207125
0.007974780507892725 0.015481265539741506 -0.009729318906467537
0.008270023946844132 0.01740491712013184 -0.013269666249721796
0.008140225139500825 0.018658981166439922 -0.016972866547209777
0.007751519283975376 0.019604777591507208 -0.020707410105609534
0.007318662739924205 0.020683017108239363 -0.024312891343501165
0.0069707766105224795 0.021759112570704193 -0.02783829597591883
0.006702226685381192 0.02255522831704743 -0.031384747913795134
0.006460614097576536 0.023354418300955478 -0.03484922394329688
0.006208498480286784 0.024089164578810184 -0.0382562985861799
0.005928720355726676 0.02465621695047383 -0.04164355184197637
0.00562110152420414 0.02514953193120981 -0.04497678633581505
0.005297776270156929 0.025665427203669683 -0.048220945298177255
0.004977662142563614 0.0262081553317405 -0.05137448092238879
0.004680078492205027 0.02673416244146506 -0.05445324552215707
0.0044193472589770496 0.02720226374807778 -0.057472229133241404
0.0042022226504668725 0.027607688166253124 -0.06043316828868544
0.004028605706719037 0.027988447428735082 -0.06332222784921751
0.003894567528214928 0.02839571519630255 -0.06612078212553563
0.003794542923454683 0.02886295133763354 -0.06881665272139856
0.0037223892098821663 0.0293918346939909 -0.07140922858855855
0.0036720478837599236 0.029963075257619598 -0.07390553071565722
0.0036379885391020494 0.03055329249611887 -0.07631406892054973
0.003615480687410345 0.03114398862607315 -0.07864157584579926
0.003600729157216099 0.031723042320282724 -0.08089246329370628
0.0035909263662617956 0.03228439369593886 -0.08306893688123633
0.003584242976167935 0.03282740427426441 -0.0851712289956595
0.00357976601221264 0.03335600767447451 -0.08719790791666855
0.003577378730160166 0.03387760573393814 -0.08914627959578228
0.0035774796054096774 0.034400706322974595 -0.09101324742144748
0.003580588564800478 0.03493169585130677 -0.09279648693062117
0.0035870678637920984 0.03547280980726065 -0.09449518447209367
0.0035969747054953923 0.03602140458721674 -0.09611030223889365
0.0036100119296844893 0.03657016821573022 -0.09764450157243673
0.0036255480079795204 0.03710796188753783 -0.099101836666284
0.0036426825552804717 0.037621047972402365 -0.10048730760893118
0.0036603380175139954 0.038095299754364195 -0.10180605610449549
0.003677362157174432 0.038521481331985796 -0.10306144374618684
0.0036926294639041822 0.03889961275509434 -0.10425346323646488
0.0037051326977571345 0.039239382771613644 -0.10537858815947809
0.003714058455611533 0.039557882290533315 -0.10643059793307764
0.003718842962038476 0.03987657432439231 -0.10740168065956175
0.003719206248598144 0.04022220824204624 -0.10828210036488149
0.003715164522496519 0.04062799398602762 -0.10905976961847336
0.0037070218583473346 0.04112797477447795 -0.10972229770225525
0.003695343396461056 0.041748094529754615 -0.11026024180072894
0.003680913018392471 0.04249796010779221 -0.11067010530428935
0.0036646790161518838 0.043365626935180014 -0.11095623568211894
0.003647691596346039 0.04431641019837312 -0.11113125717392924
0.0036310361855396924 0.045295730169616064 -0.11121503517601751
0.005410766489344848 0.00659488440361143 -0.006441234286124478
0.005892211109850776 0.009378892138172822 -0.009789723064504617
0.006132458642509649 0.011287870885110277 -0.013375839371092034
0.006047255650667177 0.012621630899715788 -0.017090461197032687
0.005720055990603616 0.013618601020698692 -0.02084680754204573
0.005325630843128663 0.014632800340478962 -0.024516025994128353
0.005016871435172548 0.01578496135634253 -0.028054173517959864
0.004834968294868498 0.01684724830364648 -0.03154417555017153
0.004732241848104854 0.01780723786126965 -0.03499055380986223
0.00464908530328423 0.018761389945162056 -0.03835819975882632
0.004547585503985086 0.019615405181623555 -0.041681435562200574
0.004411660012619469 0.020357601827734897 -0.04496451302669198
0.004242349868979272 0.021077594490628918 -0.04817481510274871
0.00405227310746894 0.021821325048724857 -0.05129562031411989
0.003859297849485217 0.022565716063612896 -0.0543353281614698
0.0036804214720396232 0.023265658669221895 -0.057310356929349854
0.003527506244425096 0.023895953422408616 -0.06022987846498425
0.003405829147614405 0.024471446087428884 -0.06308848935207895
0.003315379723667389 0.025035406808690507 -0.0658704405460371
0.003253134023982613 0.025629288975890584 -0.06856064424689955
0.003214621311891553 0.026270220663718723 -0.07115286634530894
0.0031948391851961662 0.026949319844594102 -0.07365033963492466
0.0031888698585714084 0.02764548327474911 -0.0760607450683246
0.0031922930777549615 0.02833825929868177 -0.07839152643935289
0.003201436081938149 0.02901303145957299 -0.08064800370322216
0.0032135028026517493 0.029661561479419302 -0.08283317534790727
0.003226618152360912 0.030281469287724468 -0.0849479076482243
0.0032398057236901635 0.030875449617067084 -0.08699121980172533
0.003252904392775423 0.031450260158259934 -0.08896065221010216
0.003266372004343082 0.032014956756912065 -0.09085290881510696
0.0032809500730880004 0.03257807041170355 -0.09266488458715162
0.0032973286136308236 0.03314495428751064 -0.09439463113356208
0.0033159342695244357 0.03371638407773143 -0.09604186612503052
0.0033368336138182735 0.034288282202262176 -0.09760807367934252
0.0033597203855484335 0.03485223060587048 -0.09909631771803308
0.0033839603409402744 0.035396495870924506 -0.10051086885586642
0.003408672097906746 0.03590774196474873 -0.10185658101177963
0.0034328265552422406 0.03637477227866397 -0.10313752941805665
0.0034553512046890385 0.036793352469737466 -0.10435525524948668
0.003475228953835527 0.03716860254979414 -0.10550789497416638
0.0034915839677176984 0.03751407564939653 -0.1065905156559898
0.0035037495424018335 0.03784911755486491 -0.10759607600457796
0.0035113151685979642 0.03819781846147422 -0.10851580790591307
0.003514151750190315 0.03859006832096454 -0.10933883230725815
0.003512415433327221 0.03905934250204078 -0.11005296517082346
0.0035065316976985676 0.03963543477832306 -0.11064736244984485
0.0034971622838568268 0.04033588544265722 -0.11111563999982609
0.003485158199815951 0.04115926854158658 -0.11145831682538089
0.0034715024876191118 0.042082003276042966 -0.11168397563547025
0.003457246657122113 0.04305919462440521 -0.11180895688163102

CELLS 100 350
4 0 51 52 1
4 1 52 53 2
4 2 53 54 3
4 3 54 55 4
4 4 55 56 5
4 5 56 57 6
4 6 57 58 7
4 7 58 59 8
4 8 59 60 9
4 9 60 61 10
4 10 61 62 11
4 11 62 63 12
4 12 63 64 13
4 13 64 65 14
4 14 65 66 15
4 15 66 67 16
4 16 67 68 17
4 17 68 69 18
4 18 69 70 19
4 19 70 71 20
4 20 71 72 21
4 21 72 73 22
4 22 73 74 23
4 23 74 75 24
4 24 75 76 25
4 25 76 77 26
4 26 77 78 27
4 27 78 79 28
4 28 79 80 29
4 29 80 81 30
4 30 81 82 31
4 31 82 83 32
4 32 83 84 33
4 33 84 85 34
4 34 85 86 35
4 35 86 87 36
4 36 87 88 37
4 37 88 89 38
4 38 89 90 39
4 39 90 91 40
4 40 91 92 41
4 41 92 93 42
4 42 93 94 43
4 43 94 95 44
4 44 95 96 45
4 45 96 97 46
4 46 97 98 47
4 47 98 99 48
4 48 99 100 49
4 49 100 101 50
1 102
1 103
1 104
1 105
1 106
1 107
1 108
1 109
1 110
1 111
1 112
1 113
1 114
1 115
1 116
1 117
1 118
1 119
1 120
1 121
1 122
1 123
1 124
1 125
1 126
1 127
1 128
1 129
1 130
1 131
1 132
1 133
1 134
1 135
1 136
1 137
1 138
1 139
1 140
1 141
1 142
1 143
1 144
1 145
1 146
1 147
1 148
1 149
1 150
1 151

CELL_TYPES 100
9
9
9
9
9
9
9
9
9
9
9
9
9
9
9
9
9
9
9
9
9
9
9
9
9
9
9
9
9
9
9
9
9
9
9
9
9
9
9
9
9
9
9
9
9
9
9
9
9
9
1
1
1
1
1
1
1
1
1
1
1
1
1
1
1
1
1
1
1
1
1
1
1
1
1
1
1
1
1
1
1
1
1
1
1
1
1
1
1
1
1
1
1
1
1
1
1
1
1
1

CELL_DATA 100

VECTORS S float
-2.2737897423045858e-17 2.670781695832012e-17 5.7614195250223094e-18
2.57923128727854e-18 -8.27824958815735e-18 1.1725788643667869e-17
-3.2727109417999997e-21 -8.64508098563e-20 1.7160189417841998e-19
5.013787278212e-20 -7.336842287446799e-19 1.36387437740683e-18
8.722420623779999e-20 -1.7103989869515699e-18 3.21183076540391e-18
-1.0552958101609999e-19 -1.68237818342463e-18 3.30083602028595e-18
-1.30202751670477e-18 -2.907847222657864e-17 5.63621170803254e-17
2.6886621760791e-19 7.23283490943906e-18 -1.39293144349413e-17
4.3520725199956e-19 1.30208912238246e-17 -2.4945080374401698e-17
1.06845021602001e-18 3.404055561287686e-17 -6.490275971469639e-17
1.94505740148429e-18 6.472539652943439e-17 -1.228193146675842e-16
-1.8112570521557598e-18 -6.130896221410196e-17 1.157841318212929e-16
6.552994305479e-20 2.26309603064693e-18 -4.25299475537727e-18
-4.4987791961126e-19 -1.511751838382334e-17 2.820362514306167e-17
1.3865252553808899e-18 4.7458774032534025e-17 -8.817240308392365e-17
-1.3352400923883e-19 -4.6672519915898e-18 8.63145266348583e-18
-1.25164128581316e-18 -4.3834099560941976e-17 8.067554368328045e-17
1.0401161517166e-18 3.7149923158877267e-17 -6.802062854366635e-17
-1.81104615251304e-18 -6.478740516296658e-17 1.179994162893196e-16
9.0329961628131e-19 3.27100713565558e-17 -5.928658301343446e-17
-1.1012319697960399e-18 -4.0655887353301915e-17 7.335844154973895e-17
-8.1342572372802995e-19 -3.138134772782888e-17 5.638501518415416e-17
-3.7054368312179996e-20 -1.4682196092783799e-18 2.6282963439516298e-18
-6.010641570222799e-19 -2.44952700180462e-17 4.37109751382755e-17
-1.0363058432324e-18 -4.381489183727068e-17 7.798534075792803e-17
-1.00606248113003e-18 -4.4264754234519315e-17 7.86355713649676e-17
1.2366434509968099e-18 5.702919668776066e-17 -1.0118479600928089e-16
-9.0452349350283e-19 -4.4540783222269027e-17 7.918478390159486e-17
-4.1180990192259e-19 -2.1500820285961488e-17 3.822994034246048e-17
8.1407256771593e-19 4.563432612312069e-17 -8.12458580044145e-17
1.1779834132771e-19 7.06789940216086e-18 -1.2608733204647389e-17
-4.087899549974e-19 -2.6775332825181678e-17 4.788776254335242e-17
6.9792041519115e-19 4.9313030712174366e-17 -8.847324852218305e-17
3.3769334398557e-19 2.5499208986616957e-17 -4.5897567419366476e-17
2.0554793718312e-19 1.648947767915774e-17 -2.978472249111958e-17
-2.842383785078e-19 -2.413173098248958e-17 4.3749341555175695e-17
-1.351164724456e-19 -1.192886149307787e-17 2.1708117120071408e-17
3.1819658795354e-19 2.896811574745181e-17 -5.2917331768064824e-17
-3.8598727354207997e-19 -3.6263914213549417e-17 6.651474254199632e-17
-2.8066159710948e-19 -2.690296494982062e-17 4.952492556716726e-17
-9.999047208194999e-20 -9.861937909025479e-18 1.821736643693664e-17
3.2963995165499996e-19 3.2624514789704216e-17 -6.046168765280022e-17
3.5161262136465e-19 2.856953544685996e-17 -5.3109311937521025e-17
-1.3551916071617998e-19 -9.004333178781579e-18 1.678584454758564e-17
-9.042721595486e-20 -4.4950771335126595e-18 8.40132737942448e-18
5.947608018948799e-19 2.38741078525936e-17 -4.472300986130147e-17
-5.8863014475167e-19 -1.981117733857183e-17 3.718631912777862e-17
1.9573545002649e-18 5.1782580512981176e-17 -9.736784576365093e-17
1.40353844330026e-18 2.817226343455348e-17 -5.305247082208433e-17
3.87042134733263e-18 4.0844820238401946e-17 -7.702483622348061e-17
-2.2737897423045858e-17 2.670781695832012e-17 5.7614195250223094e-18
2.57923128727854e-18 -8.27824958815735e-18 1.1725788643667869e-17
-3.2727109417999997e-21 -8.64508098563e-20 1.7160189417841998e-19
5.013787278212e-20 -7.336842287446799e-19 1.36387437740683e-18
8.722420623779999e-20 -1.7103989869515699e-18 3.21183076540391e-18
-1.0552958101609999e-19 -1.68237818342463e-18 3.30083602028595e-18
-1.30202751670477e-18 -2.907847222657864e-17 5.63621170803254e-17
2.6886621760791e-19 7.23283490943906e-18 -1.39293144349413e-17
4.3520725199956e-19 1.30208912238246e-17 -2.4945080374401698e-17
1.06845021602001e-18 3.404055561287686e-17 -6.490275971469639e-17
1.94505740148429e-18 6.472539652943439e-17 -1.228193146675842e-16
-1.8112570521557598e-18 -6.130896221410196e-17 1.157841318212929e-16
6.552994305479e-20 2.26309603064693e-18 -4.25299475537727e-18
-4.4987791961126e-19 -1.511751838382334e-17 2.820362514306167e-17
1.3865252553808899e-18 4.7458774032534025e-17 -8.817240308392365e-17
-1.3352400923883e-19 -4.6672519915898e-18 8.63145266348583e-18
-1.25164128581316e-18 -4.3834099560941976e-17 8.067554368328045e-17
1.0401161517166e-18 3.7149923158877267e-17 -6.802062854366635e-17
-1.81104615251304e-18 -6.478740516296658e-17 1.179994162893196e-16
9.0329961628131e-19 3.27100713565558e-17 -5.928658301343446e-17
-1.1012319697960399e-18 -4.0655887353301915e-17 7.335844154973895e-17
-8.1342572372802995e-19 -3.138134772782888e-17 5.638501518415416e-17
-3.7054368312179996e-20 -1.4682196092783799e-18 2.6282963439516298e-18
-6.010641570222799e-19 -2.44952700180462e-17 4.37109751382755e-17
-1.0363058432324e-18 -4.381489183727068e-17 7.798534075792803e-17
-1.00606248113003e-18 -4.4264754234519315e-17 7.86355713649676e-17
1.2366434509968099e-18 5.702919668776066e-17 -1.0118479600928089e-16
-9.0452349350283e-19 -4.4540783222269027e-17 7.918478390159486e-17
-4.1180990192259e-19 -2.1500820285961488e-17 3.822994034246048e-17
8.1407256771593e-19 4.563432612312069e-17 -8.12458580044145e-17
1.1779834132771e-19 7.06789940216086e-18 -1.2608733204647389e-17
-4.087899549974e-19 -2.6775332825181678e-17 4.788776254335242e-17
6.9792041519115e-19 4.9313030712174366e-17 -8.847324852218305e-17
3.3769334398557e-19 2.5499208986616957e-17 -4.5897567419366476e-17
2.0554793718312e-19 1.648947767915774e-17 -2.978472249111958e-17
-2.842383785078e-19 -2.413173098248958e-17 4.3749341555175695e-17
-1.351164724456e-19 -1.192886149307787e-17 2.1708117120071408e-17
3.1819658795354e-19 2.896811574745181e-17 -5.2917331768064824e-17
-3.8598727354207997e-19 -3.6263914213549417e-17 6.651474254199632e-17
-2.8066159710948e-19 -2.690296494982062e-17 4.952492556716726e-17
-9.999047208194999e-20 -9.861937909025479e-18 1.821736643693664e-17
3.2963995165499996e-19 3.2624514789704216e-17 -6.046168765280022e-17
3.5161262136465e-19 2.856953544685996e-17 -5.3109311937521025e-17
-1.3551916071617998e-19 -9.004333178781579e-18 1.678584454758564e-17
-9.042721595486e-20 -4.4950771335126595e-18 8.40132737942448e-18
5.947608018948799e-19 2.38741078525936e-17 -4.472300986130147e-17
-5.8863014475167e-19 -1.981117733857183e-17 3.718631912777862e-17
1.9573545002649e-18 5.1782580512981176e-17 -9.736784576365093e-17
1.40353844330026e-18 2.817226343455348e-17 -5.305247082208433e-17
3.87042134733263e-18 4.0844820238401946e-17 -7.702483622348061e-17

SCALARS Gamma float
LOOKUP_TABLE default
-0.00013341434538690643
-0.004158239996252549
0.02305320252040178
-0.004234381459282575
-0.008804629760518335
0.0225120146449059
0.0689949010463042
0.1221682658749052
0.17037501289291093
0.20546186655807555
0.22285530261824915
0.23476569501868558
0.23883282890891028
0.21314394066987283
0.19732408040784125
0.1909158649539261
0.18032744884236634
0.1810020517884294
0.17591040183708653
0.1753024712742585
0.17646161547896955
0.17635963750424677
0.1733008809509519
0.1734627228999467
0.17432051365884627
0.17577371658233856
0.17734957040984498
0.17766086280551666
0.1785128586930379
0.18042216124953867
0.17989237824605533
0.18665775681112495
0.18486529670194138
0.18306801375240808
0.1810012057376731
0.1782241157244177
0.17490506866975414
0.17106745758234967
0.16612410241633482
0.15955709082382766
0.1542179183236458
0.1441822311660806
0.12969416016143615
0.1104183296860838
0.09472276270317394
0.07882630673100484
0.06698918457327219
0.05363603843080649
0.04092345474440646
0.02220689664247174
-0.00013341434538690643
-0.004158239996252549
0.02305320252040178
-0.004234381459282575
-0.008804629760518335
0.0225120146449059
0.0689949010463042
0.1221682658749052
0.17037501289291093
0.20546186655807555
0.22285530261824915
0.23476569501868558
0.23883282890891028
0.21314394066987283
0.19732408040784125
0.1909158649539261
0.18032744884236634
0.1810020517884294
0.17591040183708653
0.1753024712742585
0.17646161547896955
0.17635963750424677
0.1733008809509519
0.1734627228999467
0.17432051365884627
0.17577371658233856
0.17734957040984498
0.17766086280551666
0.1785128586930379
0.18042216124953867
0.17989237824605533
0.18665775681112495
0.18486529670194138
0.18306801375240808
0.1810012057376731
0.1782241157244177
0.17490506866975414
0.17106745758234967
0.16612410241633482
0.15955709082382766
0.1542179183236458
0.1441822311660806
0.12969416016143615
0.1104183296860838
0.09472276270317394
0.07882630673100484
0.06698918457327219
0.05363603843080649
0.04092345474440646
0.02220689664247174

VECTORS Ftot float
0.16590551935635142 0.12833537234139636 0.059843766934965945
0.23627619964523888 0.2168394691452989 0.10111390505271678
-0.2348172019934245 0.11948766994780444 0.05571801555175776
0.08844372767222543 0.04538811065290839 0.021164823586637526
0.18490362265504104 0.07582626134201505 0.035358366353043715
-0.3370360082037087 0.24842150146257813 0.11584084858236265
-1.2642036833631696 0.5886270115580909 0.27448128328642696
-2.553179580875602 0.9308122770179833 0.43404489307817495
-3.956315147768187 1.2397793942393538 0.5781186259565723
-5.21930444949472 1.4768835039526673 0.6886820880959126
-6.130570411638784 1.5997606734568706 0.7459806532481321
-6.933344675879214 1.7160674003615985 0.8002153706987486
-7.52870602570715 1.7626644075241584 0.8219439119857533
-7.124941388004877 1.630433409475643 0.7602835849502523
-6.9701107369847985 1.5235324743397947 0.7104348602324757
-7.099206360183952 1.4757219127110013 0.688140429204278
-7.029658048517165 1.4158250255240736 0.6602100520093678
-7.378899019689666 1.4130676903454387 0.6589242854994701
-7.473772849110954 1.386339189063506 0.6464605806606992
-7.744089710595131 1.381287802523203 0.6441050804326549
-8.084498329076524 1.3806630801699196 0.6438137676150983
-8.364534135256571 1.3370965502514316 0.6234983610748686
-8.48704492011192 1.2961657821862755 0.6044120304719204
-8.754342664112604 1.2794922586027848 0.5966370387365107
-9.050921623913755 1.2590419640713861 0.5871009097849943
-9.37340714363738 1.241410633993463 0.5788792855462003
-9.698752994732034 1.2181554491192808 0.5680352147475589
-9.948603398523481 1.181509555733824 0.5509469540219888
-10.224807653736798 1.146103535277964 0.5344368555386289
-10.554520018594097 1.1088412640218746 0.5170611730916657
-10.733615579416412 1.0639975826620485 0.49615022105371626
-11.3470824790827 1.0435714664570004 0.4866253666409385
-11.435363360847688 0.9905298233975112 0.4618916422811749
-11.510077545511633 0.948754121553521 0.4424113125865225
-11.554961676536104 0.9132769188967161 0.42586802129773765
-11.541338030846129 0.8792341593330217 0.40999362180845783
-11.478452313824114 0.8586689088975593 0.4004038880385262
-11.36748980820828 0.8426827130937781 0.3929494025104578
-11.16510138284218 0.8212522199897316 0.38295619945800313
-10.840615662463602 0.7987540917537398 0.372465149967407
-10.584092232050224 0.7741602641106197 0.36099685979407603
-9.987677993331381 0.7430627316655936 0.3464958422652369
-9.058618180154856 0.8372528047931952 0.39041739468681663
-7.7705675114527235 0.8947254193940526 0.417217315009387
-6.710436700217739 1.0507941120466733 0.48999334159154234
-5.618130066621744 1.1066486478338056 0.5160387393717745
-4.800319843969589 1.1435506489082248 0.53324642507402
-3.861044365011974 1.1846975547620728 0.552433542383052
-2.957126813986083 1.2088111972610374 0.5636779185463309
-1.6078654629717366 1.2629233132657631 0.588910812638306
0.16590551935635142 0.12833537234139636 0.059843766934965945
0.23627619964523888 0.2168394691452989 0.10111390505271678
-0.2348172019934245 0.11948766994780444 0.05571801555175776
0.08844372767222543 0.04538811065290839 0.021164823586637526
0.18490362265504104 0.07582626134201505 0.035358366353043715
-0.3370360082037087 0.24842150146257813 0.11584084858236265
-1.2642036833631696 0.5886270115580909 0.27448128328642696
-2.553179580875602 0.9308122770179833 0.43404489307817495
-3.956315147768187 1.2397793942393538 0.5781186259565723
-5.21930444949472 1.4768835039526673 0.6886820880959126
-6.130570411638784 1.5997606734568706 0.7459806532481321
-6.933344675879214 1.7160674003615985 0.8002153706987486
-7.52870602570715 1.7626644075241584 0.8219439119857533
-7.124941388004877 1.630433409475643 0.7602835849502523
-6.9701107369847985 1.5235324743397947 0.7104348602324757
-7.099206360183952 1.4757219127110013 0.688140429204278
-7.029658048517165 1.4158250255240736 0.6602100520093678
-7.378899019689666 1.4130676903454387 0.6589242854994701
-7.473772849110954 1.386339189063506 0.6464605806606992
-7.744089710595131 1.381287802523203 0.6441050804326549
-8.084498329076524 1.3806630801699196 0.6438137676150983
-8.364534135256571 1.3370965502514316 0.6234983610748686
-8.48704492011192 1.2961657821862755 0.6044120304719204
-8.754342664112604 1.2794922586027848 0.5966370387365107
-9.050921623913755 1.2590419640713861 0.5871009097849943
-9.37340714363738 1.241410633993463 0.5788792855462003
-9.698752994732034 1.2181554491192808 0.5680352147475589
-9.948603398523481 1.181509555733824 0.5509469540219888
-10.224807653736798 1.146103535277964 0.5344368555386289
-10.554520018594097 1.1088412640218746 0.5170611730916657
-10.733615579416412 1.0639975826620485 0.49615022105371626
-11.3470824790827 1.0435714664570004 0.4866253666409385
-11.435363360847688 0.9905298233975112 0.4618916422811749
-11.510077545511633 0.948754121553521 0.4424113125865225
-11.554961676536104 0.9132769188967161 0.42586802129773765
-11.541338030846129 0.8792341593330217 0.40999362180845783
-11.478452313824114 0.8586689088975593 0.4004038880385262
-11.36748980820828 0.8426827130937781 0.3929494025104578
-11.16510138284218 0.8212522199897316 0.38295619945800313
-10.840615662463602 0.7987540917537398 0.372465149967407
-10.584092232050224 0.7741602641106197 0.36099685979407603
-9.987677993331381 0.7430627316655936 0.3464958422652369
-9.058618180154856 0.8372528047931952 0.39041739468681663
-7.7705675114527235 0.8947254193940526 0.417217315009387
-6.710436700217739 1.0507941120466733 0.48999334159154234
-5.618130066621744 1.1066486478338056 0.5160387393717745
-4.800319843969589 1.1435506489082248 0.53324642507402
-3.861044365011974 1.1846975547620728 0.552433542383052
-2.957126813986083 1.2088111972610374 0.5636779185463309
-1.6078654629717366 1.2629233132657631 0.588910812638306

VECTORS D float
0.1650974478859004 0.1264070066761283 0.06559384135103709
0.2043648767011534 0.23458529661232463 0.12066150892327007
-0.0025875136053456677 -0.00392163895405524 -0.002025018717270425
0.035567415005682834 0.0666613406412534 0.03455237560538453
0.05423136687434453 0.12044969109125511 0.06267040712744215
0.04858772111118539 0.12396395703449867 0.06473562981741454
0.07269272877673606 0.20787754120591106 0.10892793882932979
0.08111278342450874 0.25726261058912 0.13514997359231812
0.0844079690522894 0.29078850815788304 0.15325909705399507
0.08615558329851915 0.31899895812977375 0.1687286453517826
0.08352180164245801 0.3299807104026657 0.17522152020301818
0.08715971236013975 0.3657469982067119 0.19503050358840218
0.08556594930460067 0.3802018688114876 0.20363074063098835
0.08275274669317279 0.3871083367496972 0.20881521439161863
0.07524869143951324 0.3712185084686997 0.20099156767177637
0.06983199354179823 0.3628334026805796 0.1972737655424292
0.06734170286132479 0.3680304510466307 0.20100975274313995
0.06402417870264032 0.3675745251687279 0.20173230152878005
0.06262386826136684 0.37732775690580556 0.20813239381916304
0.06099253182638039 0.385794984599393 0.2137832096508282
0.059088690045834724 0.39310123143531683 0.21874714619353108
0.05275586147749522 0.37012090652496293 0.20675361717519805
0.049715312991816404 0.36907719115927967 0.20687489832227168
0.04806230795384049 0.379087885843046 0.21309862398274543
0.04591032003440269 0.38645348426112536 0.21773316088546707
0.044090077393051735 0.39794083565046195 0.22456898775036307
0.04188736118130686 0.40728367778410074 0.23006283174018777
0.03919458644783608 0.41303034279151424 0.23277385475551265
0.036457406585261434 0.41614363251022846 0.23443518081626777
0.033524987254734094 0.4176744209061438 0.23493606908965767
0.030855086772467948 0.42114681105160423 0.23636458347761907
0.02831282097394529 0.42502610864912926 0.2378851905008333
0.02560825605337872 0.4238685780604217 0.23645697520952913
0.023570130096005146 0.43263379175718053 0.24053080734908247
0.021817881169285045 0.44603662555176693 0.24708625718386276
0.020107268323482152 0.46015262722701744 0.25394655721757553
0.01885263594446855 0.4857714802375904 0.2670543914352935
0.01759755587715914 0.5138903153469898 0.2814207202278056
0.016168108588790257 0.5320905379205398 0.29019019795434714
0.014584696755247692 0.5511618775989532 0.2994851959725016
0.0128785784905352 0.562022593431231 0.304320587403386
0.011198323342620059 0.5674607018281115 0.30625710582980803
0.011719808364651172 0.693280811746906 0.3730199250496403
0.011259264089044124 0.7814911119672985 0.419301642790564
0.011690204777310382 0.9568464999613183 0.5120805011677111
0.010619384786240135 1.0304019701446028 0.5501920339637044
0.009329816008421787 1.079576758100263 0.5752970156245276
0.008136422682859606 1.1307436282533794 0.6015204339150546
0.006907978963352928 1.162585208822152 0.6175462117865305
0.005950081277178362 1.2232209390065365 0.6489500158382294
0.1650974478859004 0.1264070066761283 0.06559384135103709
0.2043648767011534 0.23458529661232463 0.12066150892327007
-0.0025875136053456677 -0.00392163895405524 -0.002025018717270425
0.035567415005682834 0.0666613406412534 0.03455237560538453
0.05423136687434453 0.12044969109125511 0.06267040712744215
0.04858772111118539 0.12396395703449867 0.06473562981741454
0.07269272877673606 0.20787754120591106 0.10892793882932979
0.08111278342450874 0.25726261058912 0.13514997359231812
0.0844079690522894 0.29078850815788304 0.15325909705399507
0.08615558329851915 0.31899895812977375 0.1687286453517826
0.08352180164245801 0.3299807104026657 0.17522152020301818
0.08715971236013975 0.3657469982067119 0.19503050358840218
0.08556594930460067 0.3802018688114876 0.20363074063098835
0.08275274669317279 0.3871083367496972 0.20881521439161863
0.07524869143951324 0.3712185084686997 0.20099156767177637
0.06983199354179823 0.3628334026805796 0.1972737655424292
0.06734170286132479 0.3680304510466307 0.20100975274313995
0.06402417870264032 0.3675745251687279 0.20173230152878005
0.06262386826136684 0.37732775690580556 0.20813239381916304
0.06099253182638039 0.385794984599393 0.2137832096508282
0.059088690045834724 0.39310123143531683 0.21874714619353108
0.05275586147749522 0.37012090652496293 0.20675361717519805
0.049715312991816404 0.36907719115927967 0.20687489832227168
0.04806230795384049 0.379087885843046 0.21309862398274543
0.04591032003440269 0.38645348426112536 0.21773316088546707
0.044090077393051735 0.39794083565046195 0.22456898775036307