# vtk DataFile Version 4.0
[MyVLM domain - lattices] 
ASCII
DATASET UNSTRUCTURED_GRID
POINTS 152 float
0.0018916144324157278 0.004586790227574752 0.009023933623794701
0.0010688609733395774 0.0037539072172519594 0.013199927427231287
0.00045780959861706216 0.0029525381274623052 0.017306780980976523
-0.00013255382275044122 0.0020584784424397262 0.02128657676815126
-0.0007201482309470062 0.001123876595067425 0.025163632002369717
-0.0011946371146526612 1.3164692028118493e-5 0.028874730336778107
-0.0014108622120167862 -0.001549013401652665 0.03229147109691787
-0.0013224843579428829 -0.0033331036579091686 0.0355208970840364
-0.0010167791708201568 -0.005004040778434606 0.038719251812716134
-0.0006138083932142036 -0.006785935740255492 0.041782030618093026
-0.00020084691410191335 -0.008575305405978203 0.0447574884796236
0.0001698744379422134 -0.01024214320228406 0.04770624845805687
0.0004739400232210948 -0.011853212447877544 0.05059717830659708
0.0007082255455298663 -0.013482653738331643 0.05339570569774838
0.0008836440760600275 -0.01511981220014193 0.05610679908062255
0.001017516815515788 -0.016710997360605075 0.05875549473381113
0.0011275777072549662 -0.01820703391296754 0.0613647234794454
0.0012277625198140337 -0.019595633316817317 0.06394021555802702
0.00132638558954348 -0.020907451694486445 0.06646767578494327
0.0014271324949937316 -0.022187645268114953 0.06892604746799685
0.0015306083418583354 -0.023466022923429548 0.07130143049549237
0.0016355657532635378 -0.024743261275785407 0.07359350935650805
0.0017398364473795213 -0.02600110839452524 0.07581079506608553
0.0018410131526058282 -0.027218451907567772 0.0779631324850081
0.001936923789896676 -0.028379775160485527 0.08005775714806425
0.0020259353317291845 -0.02947641131044176 0.08209871047044077
0.0021071205190511294 -0.03050606828967046 0.08408706126089
0.002180316672546981 -0.03147205522234562 0.08602126644946777
0.0022461021518325993 -0.032382320732210625 0.08789761953205076
0.0023056987632523672 -0.033248258844736124 0.08971080738730482
0.0023607022647827588 -0.034082315022760386 0.09145502660059915
0.0024126938092907785 -0.03489477174432031 0.09312548237368035
0.0024629658139780817 -0.03569170362489967 0.09471934206682799
0.0025123806343549317 -0.03647420197731184 0.09623609679251974
0.0025613283706516186 -0.03723851942413701 0.09767749398154446
0.0026097549007438213 -0.03797683729116037 0.09904717954156514
0.0026572361369983943 -0.038678419695354134 0.10035015969705469
0.002703078927872171 -0.039331727810105334 0.10159181509122885
0.0027464329900004744 -0.03992950769674788 0.10277552829123941
0.0027864017842759935 -0.04047300734112588 0.10390071735173001
0.0028221433614242725 -0.0409723920381239 0.10496264211784856
0.0028529549202113143 -0.04144458474149621 0.10595341128666083
0.002878337166053322 -0.04191037774140668 0.10686332925403284
0.0028980365508205295 -0.04239535485145001 0.10768046609176059
0.0029120651374179955 -0.04293106923505209 0.10839010831809953
0.002920699186668212 -0.04354966484384412 0.10897726696224068
0.0029244586304951574 -0.044275312092677876 0.10943067117463788
0.002924070395798875 -0.045116314366820905 0.1097464490231523
0.0029204190990956736 -0.046060129930051034 0.1099304488154308
0.0029144889643634465 -0.04707227454001511 0.10999875081776841
0.002907300946956263 -0.0480991119057521 0.10997636604339528
0.006212993241944028 -0.008641061309724783 0.0028556851510145543
0.0072288922610571306 -0.013155649667416391 0.00531487155590285
0.007974780507892725 -0.016270320666163116 0.008343014713876827
0.008270023946844132 -0.01849521377380984 0.011702232684353296
0.008140225139500825 -0.020067260900280378 0.015282042303273494
0.007751519283975376 -0.021334945202062385 0.018919943206029202
0.007318662739924205 -0.022723320087155188 0.02241772973334545
0.0069707766105224795 -0.024102579940727665 0.025835931237489517
0.006702226685381192 -0.025204759879066663 0.029299501795853444
0.006460614097576536 -0.0263028576853866 0.03268114045146503
0.006208498480286784 -0.027331754152925318 0.03601121278913043
0.005928720355726676 -0.028191867292500384 0.03933615465301973
0.00562110152420414 -0.028973815588861453 0.04261370994972376
0.005297776270156929 -0.029770494808012752 0.04580056067214457
0.004977662142563614 -0.030586006431311537 0.0488947942681155
0.004680078492205027 -0.031378343940615734 0.05191599869873862
0.0044193472589770496 -0.032107785739400235 0.05488269644866775
0.0042022226504668725 -0.03276973024658682 0.05779703327039925
0.004028605706719037 -0.033400838736961085 0.0606419137307429
0.003894567528214928 -0.034050466804287624 0.06339432293835348
0.003794542923454683 -0.03475088557517243 0.06603921261975733
0.0037223892098821663 -0.03550371424601661 0.06857582773127253
0.0036720478837599236 -0.03629034813284832 0.07101284377951274
0.0036379885391020494 -0.03708823735274719 0.07336077594757419
0.003615480687410345 -0.037879541300411414 0.07562794344633525
0.003600729157216099 -0.03865256928785717 0.07781979773313188
0.0035909263662617956 -0.03940147672414417 0.07993906418547833
0.003584242976167935 -0.04012564781398494 0.08198602995343299
0.00357976601221264 -0.0408288764253391 0.08395892592731224
0.003577378730160166 -0.04151830142755338 0.08585442319766919
0.0035774796054096774 -0.042202128428452015 0.08766869542673551
0.003580588564800478 -0.04288651694523778 0.08939887038446907
0.0035870678637920984 -0.043573623045153165 0.09104394268020317
0.0035969747054953923 -0.04426089704493664 0.09260510125076854
0.0036100119296844893 -0.04494128674460528 0.09408563459102404
0.0036255480079795204 -0.045604049071663814 0.09549055227794635
0.0036426825552804717 -0.04623593445813224 0.0968260326865518
0.0036603380175139954 -0.046823318073511457 0.09809842917964315
0.003677362157174432 -0.04735729214391032 0.09931189552040298
0.0036926294639041822 -0.047837876006837816 0.10046642269160275
0.0037051326977571345 -0.04827441419421403 0.10155765326644625
0.003714058455611533 -0.04868339041950245 0.10257790076311063
0.003718842962038476 -0.049085505170253 0.1035175123857238
0.003719206248598144 -0.049506557479847356 0.10436445784744694
0.003715164522496519 -0.04997857742797165 0.10510380127683104
0.0037070218583473346 -0.0505343987658068 0.10572023204425447
0.003695343396461056 -0.05119904369565456 0.10620208210516006
0.003680913018392471 -0.05198177776685508 0.10654503086293349
0.0036646790161518838 -0.05287108076561132 0.10675445028149187
0.003647691596346039 -0.053833500139554194 0.10684593954218972
0.0036310361855396924 -0.0548163952366397 0.10684404538420547
0.005410766489344848 -0.007131179435824603 0.005841941396472276
0.005892211109850776 -0.010196433207003032 0.008935045902193356
0.006132458642509649 -0.012410698343752104 0.012341137492977269
0.006047255650667177 -0.01406313362309544 0.015925379216675167
0.005720055990603616 -0.015383697127491594 0.019580539858381988
0.005325630843128663 -0.01671383057215966 0.02314740253147749
0.005016871435172548 -0.0181699771429013 0.026571668886682397
0.004834968294868498 -0.019532395486965844 0.029955805999597674
0.004732241848104854 -0.020789103651506238 0.033305401146595574
0.00464908530328423 -0.02203313458264618 0.03657707235243788
0.004547585503985086 -0.023173539118067417 0.03981322990801637
0.004411660012619469 -0.02419905053678089 0.043019127571610555
0.004242349868979272 -0.025196099672103973 0.0461544619837438
0.00405227310746894 -0.02620899620705581 0.0491985711998939
0.003859297849485217 -0.0272154825845661 0.052161834089374505
0.0036804214720396232 -0.02817205253920257 0.05506453795693446
0.003527506244425096 -0.029054401898468248 0.057918016024334176
0.003405829147614405 -0.029876848995243434 0.0607155915432996
0.003315379723667389 -0.030681126698293447 0.06343780415752867
0.003253134023982613 -0.03150721566624059 0.06606601057972772
0.003214621311891553 -0.03237163545784776 0.06859250761313626
0.0031948391851961662 -0.03326581960086318 0.07102128986936868
0.0031888698585714084 -0.03416941459485994 0.0733618483415443
0.0031922930777549615 -0.03506269537844114 0.07562338097685009
0.003201436081938149 -0.03593156477946663 0.07781246139461331
0.0032135028026517493 -0.036768077204514533 0.07993279468589519
0.003226618152360912 -0.03756993714080043 0.08198545126588647
0.0032398057236901635 -0.03833974358406605 0.08396921920296928
0.003252904392775423 -0.039084014141953026 0.08588105928678749
0.003266372004343082 -0.03981148292943909 0.08771689873263976
0.0032809500730880004 -0.04053037786101877 0.08947290080098666
0.0032973286136308236 -0.04124586191754911 0.09114665795431563
0.0033159342695244357 -0.041958683234060115 0.09273782133153285
0.0033368336138182735 -0.04266490909625933 0.09424822478743025
0.0033597203855484335 -0.043356420520513084 0.09568165426625261
0.0033839603409402744 -0.04402190094698784 0.09704338676651429
0.003408672097906746 -0.04464848813754882 0.09833942004835855
0.0034328265552422406 -0.04522538326988982 0.09957478968532583
0.0034553512046890385 -0.04574850243626478 0.10075140003487333
0.003475228953835527 -0.046222783747800665 0.1018669484179657
0.0034915839677176984 -0.0466612988275962 0.10291533943664752
0.0035037495424018335 -0.04708270615652116 0.10388787249839965
0.0035113151685979642 -0.04751024006789473 0.10477371325566322
0.003514151750190315 -0.04797272860124489 0.10555941897283677
0.003512415433327221 -0.04850245783252895 0.1062299344054496
0.0035065316976985676 -0.04912816304011326 0.10677186007314028
0.0034971622838568268 -0.04986676135587847 0.10717730738775885
0.003485158199815951 -0.05071687748678389 0.10744691765898241
0.0034715024876191118 -0.05165576839819533 0.10759129613803049
0.003457246657122113 -0.05264013407179361 0.10763063395504369

CELLS 100 350
4 0 51 52 1
4 1 52 53 2
4 2 53 54 3
4 3 54 55 4
4 4 55 56 5
4 5 56 57 6
4 6 57 58 7
4 7 58 59 8
4 8 59 60 9
4 9 60 61 10
4 10 61 62 11
4 11 62 63 12
4 12 63 64 13
4 13 64 65 14
4 14 65 66 15
4 15 66 67 16
4 16 67 68 17
4 17 68 69 18
4 18 69 70 19
4 19 70 71 20
4 20 71 72 21
4 21 72 73 22
4 22 73 74 23
4 23 74 75 24
4 24 75 76 25
4 25 76 77 26
4 26 77 78 27
4 27 78 79 28
4 28 79 80 29
4 29 80 81 30
4 30 81 82 31
4 31 82 83 32
4 32 83 84 33
4 33 84 85 34
4 34 85 86 35
4 35 86 87 36
4 36 87 88 37
4 37 88 89 38
4 38 89 90 39
4 39 90 91 40
4 40 91 92 41
4 41 92 93 42
4 42 93 94 43
4 43 94 95 44
4 44 95 96 45
4 45 96 97 46
4 46 97 98 47
4 47 98 99 48
4 48 99 100 49
4 49 100 101 50
1 102
1 103
1 104
1 105
1 106
1 107
1 108
1 109
1 110
1 111
1 112
1 113
1 114
1 115
1 116
1 117
1 118
1 119
1 120
1 121
1 122
1 123
1 124
1 125
1 126
1 127
1 128
1 129
1 130
1 131
1 132
1 133
1 134
1 135
1 136
1 137
1 138
1 139
1 140
1 141
1 142
1 143
1 144
1 145
1 146
1 147
1 148
1 149
1 150
1 151

CELL_TYPES 100
9
9
9
9
9
9
9
9
9
9
9
9
9
9
9
9
9
9
9
9
9
9
9
9
9
9
9
9
9
9
9
9
9
9
9
9
9
9
9
9
9
9
9
9
9
9
9
9
9
9
1
1
1
1
1
1
1
1
1
1
1
1
1
1
1
1
1
1
1
1
1
1
1
1
1
1
1
1
1
1
1
1
1
1
1
1
1
1
1
1
1
1
1
1
1
1
1
1
1
1

CELL_DATA 100

VECTORS S float
1.1020599413175489e-17 2.4656164800618197e-18 4.52982556857812e-18
1.90893453886868e-18 1.89522294529646e-18 -2.5253819687061198e-18
-2.6168072017704e-19 -6.5440644298837995e-19 1.1364455442019198e-18
-5.432298947767699e-19 -7.61463691786863e-18 1.435975722613771e-17
-2.6418365150609e-19 -7.65766385411527e-18 1.424686412369913e-17
-4.730596264472e-20 -2.6134268565169097e-18 4.76934652416769e-18
3.639906946721e-20 3.97772926959865e-18 -7.11568914535751e-18
-2.3596129820389998e-20 -7.538676050863729e-18 1.322308485832087e-17
1.61646727389e-21 -1.1461429092950999e-18 1.97283834743616e-18
-4.1778814967101e-19 8.403063227082265e-17 -1.4222178923406277e-16
4.752581272471499e-19 -5.793901504049933e-17 9.641757407484564e-17
1.0816700745705999e-19 -1.008944630749977e-17 1.6544008900258178e-17
1.41501832118659e-18 -1.1084980975263347e-16 1.7948716966127005e-16
-1.4654074702513199e-18 1.0204518953572843e-16 -1.6347321480426175e-16
-1.6109599825171799e-18 1.0537508842278382e-16 -1.672652495507723e-16
6.8517752963825e-19 -4.3165472818718235e-17 6.797604616892146e-17
-1.5733180569757499e-18 9.700012365550912e-17 -1.5169312872637116e-16
6.598115784705199e-19 -4.042634559319142e-17 6.28290806702202e-17
-7.2855270532136e-19 4.420514924514668e-17 -6.832107431782569e-17
-5.850310739179499e-19 3.427280538840948e-17 -5.2708356753579415e-17
3.4999156484622996e-19 -2.0631596434761138e-17 3.1584744625952076e-17
-1.3864221802748998e-19 8.38822998021511e-18 -1.278852745249792e-17
-1.77139832556532e-18 1.0816806052204615e-16 -1.6432227445082263e-16
-2.7458994976988e-19 1.695283886964063e-17 -2.56764356740877e-17
-7.019847629126499e-19 4.432456103398248e-17 -6.697333209611676e-17
-3.793558573018e-20 2.50843176692006e-18 -3.7938497482981795e-18
4.471456547060999e-19 -3.087437570394868e-17 4.66432533973071e-17
6.982333537232799e-19 -5.130600529862932e-17 7.755907946546881e-17
-3.5452340684959997e-19 2.808079421792156e-17 -4.250541405227634e-17
3.9440347050777997e-19 -3.411709431344998e-17 5.1743961309438215e-17
-8.419966806612e-19 7.944675378048207e-17 -1.2080306359427627e-16
2.300195198327e-19 -2.413881248762788e-17 3.68105499391045e-17
1.5340409218559e-19 -1.7905072463996118e-17 2.7398181209622238e-17
3.4423272857730996e-19 -4.388479301508532e-17 6.740027020498627e-17
2.0089198823416e-19 -2.77820212210432e-17 4.283358239652262e-17
8.247495370481e-20 -1.2316287645898759e-17 1.90637219623119e-17
2.4751622745995997e-19 -3.9033702650011357e-17 6.06393555111322e-17
3.667951992077e-20 -6.07131676874598e-18 9.46809252015681e-18
-1.1243410362816e-19 1.9675376472905548e-17 -3.079706248277228e-17
1.6538514131809998e-20 -2.99668403474201e-18 4.7061219770915594e-18
8.469745864933e-20 -1.60785372019821e-17 2.5336283843614678e-17
-1.5626665085563e-19 2.97164704318737e-17 -4.697270385195164e-17
-1.416324190447e-19 2.237560721399037e-17 -3.546927538840082e-17
9.973618834879e-20 -1.338341052931676e-17 2.1268961398452918e-17
3.297868753758e-19 -3.528292639291674e-17 5.61981249805547e-17
5.4618449180437e-19 -4.8330713991264136e-17 7.71323750091032e-17
4.6118199474512e-19 -3.2018783833771e-17 5.1186891486210265e-17
7.536538667637899e-19 -3.771613251171056e-17 6.038241484307974e-17
6.5906039529896e-19 -2.341143537421762e-17 3.752628950824628e-17
2.9064427553725597e-18 -5.159272071181706e-17 8.27727778487416e-17
1.1020599413175489e-17 2.4656164800618197e-18 4.52982556857812e-18
1.90893453886868e-18 1.89522294529646e-18 -2.5253819687061198e-18
-2.6168072017704e-19 -6.5440644298837995e-19 1.1364455442019198e-18
-5.432298947767699e-19 -7.61463691786863e-18 1.435975722613771e-17
-2.6418365150609e-19 -7.65766385411527e-18 1.424686412369913e-17
-4.730596264472e-20 -2.6134268565169097e-18 4.76934652416769e-18
3.639906946721e-20 3.97772926959865e-18 -7.11568914535751e-18
-2.3596129820389998e-20 -7.538676050863729e-18 1.322308485832087e-17
1.61646727389e-21 -1.1461429092950999e-18 1.97283834743616e-18
-4.1778814967101e-19 8.403063227082265e-17 -1.4222178923406277e-16
4.752581272471499e-19 -5.793901504049933e-17 9.641757407484564e-17
1.0816700745705999e-19 -1.008944630749977e-17 1.6544008900258178e-17
1.41501832118659e-18 -1.1084980975263347e-16 1.7948716966127005e-16
-1.4654074702513199e-18 1.0204518953572843e-16 -1.6347321480426175e-16
-1.6109599825171799e-18 1.0537508842278382e-16 -1.672652495507723e-16
6.8517752963825e-19 -4.3165472818718235e-17 6.797604616892146e-17
-1.5733180569757499e-18 9.700012365550912e-17 -1.5169312872637116e-16
6.598115784705199e-19 -4.042634559319142e-17 6.28290806702202e-17
-7.2855270532136e-19 4.420514924514668e-17 -6.832107431782569e-17
-5.850310739179499e-19 3.427280538840948e-17 -5.2708356753579415e-17
3.4999156484622996e-19 -2.0631596434761138e-17 3.1584744625952076e-17
-1.3864221802748998e-19 8.38822998021511e-18 -1.278852745249792e-17
-1.77139832556532e-18 1.0816806052204615e-16 -1.6432227445082263e-16
-2.7458994976988e-19 1.695283886964063e-17 -2.56764356740877e-17
-7.019847629126499e-19 4.432456103398248e-17 -6.697333209611676e-17
-3.793558573018e-20 2.50843176692006e-18 -3.7938497482981795e-18
4.471456547060999e-19 -3.087437570394868e-17 4.66432533973071e-17
6.982333537232799e-19 -5.130600529862932e-17 7.755907946546881e-17
-3.5452340684959997e-19 2.808079421792156e-17 -4.250541405227634e-17
3.9440347050777997e-19 -3.411709431344998e-17 5.1743961309438215e-17
-8.419966806612e-19 7.944675378048207e-17 -1.2080306359427627e-16
2.300195198327e-19 -2.413881248762788e-17 3.68105499391045e-17
1.5340409218559e-19 -1.7905072463996118e-17 2.7398181209622238e-17
3.4423272857730996e-19 -4.388479301508532e-17 6.740027020498627e-17
2.0089198823416e-19 -2.77820212210432e-17 4.283358239652262e-17
8.247495370481e-20 -1.2316287645898759e-17 1.90637219623119e-17
2.4751622745995997e-19 -3.9033702650011357e-17 6.06393555111322e-17
3.667951992077e-20 -6.07131676874598e-18 9.46809252015681e-18
-1.1243410362816e-19 1.9675376472905548e-17 -3.079706248277228e-17
1.6538514131809998e-20 -2.99668403474201e-18 4.7061219770915594e-18
8.469745864933e-20 -1.60785372019821e-17 2.5336283843614678e-17
-1.5626665085563e-19 2.97164704318737e-17 -4.697270385195164e-17
-1.416324190447e-19 2.237560721399037e-17 -3.546927538840082e-17
9.973618834879e-20 -1.338341052931676e-17 2.1268961398452918e-17
3.297868753758e-19 -3.528292639291674e-17 5.61981249805547e-17
5.4618449180437e-19 -4.8330713991264136e-17 7.71323750091032e-17
4.6118199474512e-19 -3.2018783833771e-17 5.1186891486210265e-17
7.536538667637899e-19 -3.771613251171056e-17 6.038241484307974e-17
6.5906039529896e-19 -2.341143537421762e-17 3.752628950824628e-17
2.9064427553725597e-18 -5.159272071181706e-17 8.27727778487416e-17

SCALARS Gamma float
LOOKUP_TABLE default
-5.729070571978413e-5
0.0006107063048544357
0.0030407181018743653
0.025356670209060184
0.05550977240477396
0.1030384444822106
0.15101418247559864
0.19569430191440035
0.23757827163741016
0.26555931269011185
0.28571110506773606
0.28991035743286425
0.2822101852356086
0.2580846210322547
0.2457601102439448
0.2365931200353677
0.22490750805096363
0.2188914664883909
0.21343584132676469
0.20508911880625394
0.2036930924772735
0.20074264708028536
0.19316145552601996
0.18936877270274094
0.1865631496446082
0.1854820414367276
0.18618030143859746
0.18678542125415687
0.18868128715570565
0.19160684261754257
0.1916601605180714
0.1988698013740214
0.19800093695155233
0.19705649806116624
0.1958601965884227
0.19407500543590786
0.19176627060284743
0.18888010064611319
0.18571143440485485
0.18000142704021332
0.1756385552353777
0.166195821898871
0.1518943407183107
0.13515516938070327
0.12512159624421468
0.1068929123099112
0.08479038427974021
0.06217787077255923
0.044425060253699224
0.022882859005437413
-5.729070571978413e-5
0.0006107063048544357
0.0030407181018743653
0.025356670209060184
0.05550977240477396
0.1030384444822106
0.15101418247559864
0.19569430191440035
0.23757827163741016
0.26555931269011185
0.28571110506773606
0.28991035743286425
0.2822101852356086
0.2580846210322547
0.2457601102439448
0.2365931200353677
0.22490750805096363
0.2188914664883909
0.21343584132676469
0.20508911880625394
0.2036930924772735
0.20074264708028536
0.19316145552601996
0.18936877270274094
0.1865631496446082
0.1854820414367276
0.18618030143859746
0.18678542125415687
0.18868128715570565
0.19160684261754257
0.1916601605180714
0.1988698013740214
0.19800093695155233
0.19705649806116624
0.1958601965884227
0.19407500543590786
0.19176627060284743
0.18888010064611319
0.18571143440485485
0.18000142704021332
0.1756385552353777
0.166195821898871
0.1518943407183107
0.13515516938070327
0.12512159624421468
0.1068929123099112
0.08479038427974021
0.06217787077255923
0.044425060253699224
0.022882859005437413

VECTORS Ftot float
0.008175584646130411 -0.01773300435795888 -0.010238154839608367
0.010220345682565087 -0.04462553495538383 -0.02576456461922191
-0.0006801709933796651 -0.10343921375060917 -0.05972065790367745
-0.2612054561229392 -0.20991172454554172 -0.12119259067242708
-0.7381604231868345 -0.34346822182135367 -0.1983014703266406
-1.6380558232949547 -0.5528800197370117 -0.3192054282247293
-2.763605062931429 -0.7707317638813622 -0.44498219134989947
-4.028574605838746 -0.9935533978717965 -0.5736283217155491
-5.413767312839091 -1.2283805718380978 -0.7092058538180321
-6.610604735545906 -1.4393209458955567 -0.8309923355630665
-7.704673103407892 -1.6114527876087943 -0.9303727007123102
-8.407085292879833 -1.6910370912422024 -0.9763207198383272
-8.74144374031596 -1.7125252864819758 -0.9887269351444097
-8.49268574201127 -1.6238820374533471 -0.9375487314558878
-8.557170682180946 -1.565714732506964 -0.9039658222870585
-8.6808275645967 -1.5175231189414518 -0.8761423812223277
-8.66353745150697 -1.4469660719036272 -0.8354062511218144
-8.823805310402195 -1.4022414413651179 -0.8095844736409996
-8.974143305092346 -1.3735700112552014 -0.7930310157489877
-8.963526180440635 -1.3650333447637115 -0.7881023690521441
-9.23822411382242 -1.3493812634769355 -0.779065635707846
-9.428293689098993 -1.300953722940249 -0.7511059821427986
-9.371048442754347 -1.248433473686614 -0.7207834020983062
-9.470643556608186 -1.221748857542462 -0.7053770317842581
-9.601811937594913 -1.1913986609641456 -0.6878543376198091
-9.814854393703232 -1.1706661998243293 -0.6758844455997727
-10.109184620719118 -1.1458592048634784 -0.6615621203813398
-10.389609407915767 -1.1113978998428526 -0.6416658766510557
-10.736297192741935 -1.0751314971347317 -0.6207274592849827
-11.138452331711493 -1.035434930595246 -0.5978086359075068
-11.366827843331867 -0.9865745584599808 -0.569599086902506
-12.018669529343079 -0.9578332597038092 -0.553005290328771
-12.178884434481953 -0.895321885109197 -0.5169143313791581
-12.321615632453884 -0.8532102386746161 -0.4926011609741344
-12.436591087303723 -0.8186035499230602 -0.47262097990766205
-12.50191623299693 -0.7871899506693131 -0.45448432992229604
-12.519883204089263 -0.7701832593185854 -0.44466551209292865
-12.487324178448922 -0.757184202790714 -0.4371605033073509
-12.422839356175176 -0.7371945352807666 -0.42561946338947165
-12.174328520743842 -0.7201107580020484 -0.4157561399788281
-12.000364114022892 -0.7006628238431427 -0.4045278699570018
-11.461877377649266 -0.6897457645191779 -0.3982249028175516
-10.565331191167182 -0.7886499045766004 -0.455327234703673
-9.475020122053541 -0.856158839624372 -0.4943035365262088
-8.834459610333868 -1.0269887484759361 -0.5929322303872986
-7.59642278309021 -1.092338750408063 -0.6306620715943546
-6.060944827110943 -1.1334865909780005 -0.6544187884239798
-4.468151327865591 -1.1797657064798936 -0.6811380482168555
-3.207964030247413 -1.2111682893940048 -0.6992683379155672
-1.6615912200929057 -1.2695922896786405 -0.7329994502070364
0.008175584646130411 -0.01773300435795888 -0.010238154839608367
0.010220345682565087 -0.04462553495538383 -0.02576456461922191
-0.0006801709933796651 -0.10343921375060917 -0.05972065790367745
-0.2612054561229392 -0.20991172454554172 -0.12119259067242708
-0.7381604231868345 -0.34346822182135367 -0.1983014703266406
-1.6380558232949547 -0.5528800197370117 -0.3192054282247293
-2.763605062931429 -0.7707317638813622 -0.44498219134989947
-4.028574605838746 -0.9935533978717965 -0.5736283217155491
-5.413767312839091 -1.2283805718380978 -0.7092058538180321
-6.610604735545906 -1.4393209458955567 -0.8309923355630665
-7.704673103407892 -1.6114527876087943 -0.9303727007123102
-8.407085292879833 -1.6910370912422024 -0.9763207198383272
-8.74144374031596 -1.7125252864819758 -0.9887269351444097
-8.49268574201127 -1.6238820374533471 -0.9375487314558878
-8.557170682180946 -1.565714732506964 -0.9039658222870585
-8.6808275645967 -1.5175231189414518 -0.8761423812223277
-8.66353745150697 -1.4469660719036272 -0.8354062511218144
-8.823805310402195 -1.4022414413651179 -0.8095844736409996
-8.974143305092346 -1.3735700112552014 -0.7930310157489877
-8.963526180440635 -1.3650333447637115 -0.7881023690521441
-9.23822411382242 -1.3493812634769355 -0.779065635707846
-9.428293689098993 -1.300953722940249 -0.7511059821427986
-9.371048442754347 -1.248433473686614 -0.7207834020983062
-9.470643556608186 -1.221748857542462 -0.7053770317842581
-9.601811937594913 -1.1913986609641456 -0.6878543376198091
-9.814854393703232 -1.1706661998243293 -0.6758844455997727
-10.109184620719118 -1.1458592048634784 -0.6615621203813398
-10.389609407915767 -1.1113978998428526 -0.6416658766510557
-10.736297192741935 -1.0751314971347317 -0.6207274592849827
-11.138452331711493 -1.035434930595246 -0.5978086359075068
-11.366827843331867 -0.9865745584599808 -0.569599086902506
-12.018669529343079 -0.9578332597038092 -0.553005290328771
-12.178884434481953 -0.895321885109197 -0.5169143313791581
-12.321615632453884 -0.8532102386746161 -0.4926011609741344
-12.436591087303723 -0.8186035499230602 -0.47262097990766205
-12.50191623299693 -0.7871899506693131 -0.45448432992229604
-12.519883204089263 -0.7701832593185854 -0.44466551209292865
-12.487324178448922 -0.757184202790714 -0.4371605033073509
-12.422839356175176 -0.7371945352807666 -0.42561946338947165
-12.174328520743842 -0.7201107580020484 -0.4157561399788281
-12.000364114022892 -0.7006628238431427 -0.4045278699570018
-11.461877377649266 -0.6897457645191779 -0.3982249028175516
-10.565331191167182 -0.7886499045766004 -0.455327234703673
-9.475020122053541 -0.856158839624372 -0.4943035365262088
-8.834459610333868 -1.0269887484759361 -0.5929322303872986
-7.59642278309021 -1.092338750408063 -0.6306620715943546
-6.060944827110943 -1.1334865909780005 -0.6544187884239798
-4.468151327865591 -1.1797657064798936 -0.6811380482168555
-3.207964030247413 -1.2111682893940048 -0.6992683379155672
-1.6615912200929057 -1.2695922896786405 -0.7329994502070364

VECTORS D float
0.007877219388164193 -0.018402760595315173 -0.00914770975987546
0.01456761474401252 -0.04480320666473693 -0.022611804102389874
0.028342127780278132 -0.09969882978933343 -0.05088406431674437
0.04028958865311761 -0.1518750540766583 -0.07901156452740042
0.04948524503719288 -0.19022451374820293 -0.10132771519630694
0.057784310938145664 -0.22575435668418845 -0.12313195388585214
0.05929774073283876 -0.23587478431225664 -0.13155263415992258
0.05813898996424707 -0.23566841042910536 -0.1342542958404359
0.057707683301318854 -0.23906991232159816 -0.13893767209610605
0.06097491748954392 -0.25677544334090713 -0.15189288202498322
0.0659259876171141 -0.28791144549428277 -0.17333600842584504
0.06813326552662455 -0.31015328981610363 -0.189593994723089
0.07209132451775206 -0.3435378828801323 -0.2127345346028684
0.07163963048233987 -0.35838511008356655 -0.22435759753578396
0.0675293394410985 -0.355148195276054 -0.22438946311139746
0.06358738545446452 -0.3516500430170401 -0.22394225435539944
0.05874629904282783 -0.3414014601796703 -0.21891835672112966
0.054305698015976414 -0.33127297515872894 -0.21372248590204135
0.05245315579958696 -0.3354729640125465 -0.21761729420826154
0.055790358613486114 -0.37380484892260085 -0.24368014343209035
0.05341914666908413 -0.37494251762302505 -0.24550962980386243
0.0481179075762403 -0.354161031921753 -0.23282237695330665
0.045636630111135876 -0.3530560193719255 -0.23289736981282919
0.04453846982269365 -0.3635318423269461 -0.24049781058106962
0.04280012562716275 -0.3705332343675568 -0.24567641302766746
0.0414644409058651 -0.38282797189122075 -0.2535342429524862
0.039361814054669333 -0.39105314048203416 -0.25922552915799196
0.036684357138819054 -0.39519120721584616 -0.2617526736136775
0.03374481905467078 -0.3975090046513042 -0.26289196651174485
0.03058809912510676 -0.3976907541640056 -0.2624483452018693
0.027696034418076755 -0.4014408657538 -0.2642026835942382
0.024957783522405675 -0.4071843750740861 -0.26717036478554906
0.021738730613403187 -0.40355566033553114 -0.263850658424716
0.019600949071962748 -0.4184779122088724 -0.27257403851615464
0.01767496179573665 -0.4390552556471488 -0.2848557721571123
0.015741442880305226 -0.4608843402417413 -0.2978265415276657
0.014100330095977847 -0.49391770756731196 -0.3179936005046927
0.012393061166292196 -0.5268177031639261 -0.3378644346804856
0.010431318473861332 -0.5487688590748997 -0.3506310623257769
0.008476200229548744 -0.5723432302324821 -0.3644767416860895
0.0066263864399605 -0.5856553154094726 -0.37168205379158514
0.004998479569848551 -0.6048322601304896 -0.382653319824296
0.0040927532136593595 -0.7270437279343462 -0.45866808306753826
0.0027438295186385533 -0.8132168977522672 -0.51172640954087
0.0014496897816121037 -0.9943989078332199 -0.6243229924678054
-0.0001747726746615734 -1.0690283115890216 -0.669845912455707
-0.0017123550169740802 -1.1156267308084449 -0.6978392394711602
-0.0031384811450232406 -1.1633912718855621 -0.7266396045765492
-0.004402296314163979 -1.1944033114144903 -0.7450721860107901
-0.0056485000543423985 -1.2488895310365706 -0.7782412697364806
0.007877219388164193 -0.018402760595315173 -0.00914770975987546
0.01456761474401252 -0.04480320666473693 -0.022611804102389874
0.028342127780278132 -0.09969882978933343 -0.05088406431674437
0.04028958865311761 -0.1518750540766583 -0.07901156452740042
0.04948524503719288 -0.19022451374820293 -0.10132771519630694
0.057784310938145664 -0.22575435668418845 -0.12313195388585214
0.05929774073283876 -0.23587478431225664 -0.13155263415992258
0.05813898996424707 -0.23566841042910536 -0.1342542958404359
0.057707683301318854 -0.23906991232159816 -0.13893767209610605
0.06097491748954392 -0.25677544334090713 -0.15189288202498322
0.0659259876171141 -0.28791144549428277 -0.17333600842584504
0.06813326552662455 -0.31015328981610363 -0.189593994723089
0.07209132451775206 -0.3435378828801323 -0.2127345346028684
0.07163963048233987 -0.35838511008356655 -0.22435759753578396
0.0675293394410985 -0.355148195276054 -0.22438946311139746
0.06358738545446452 -0.3516500430170401 -0.22394225435539944
0.05874629904282783 -0.3414014601796703 -0.21891835672112966
0.054305698015976414 -0.33127297515872894 -0.21372248590204135
0.05245315579958696 -0.3354729640125465 -0.21761729420826154
0.055790358613486114 -0.37380484892260085 -0.24368014343209035
0.05341914666908413 -0.37494251762302505 -0.24550962980386243