# vtk DataFile Version 4.0
[MyVLM domain - lattices] 
ASCII
DATASET UNSTRUCTURED_GRID
POINTS 152 float
0.0018916144324157278 0.009023933623794644 -0.004586790227574735
0.0010688609733395774 0.01319992742723122 -0.0037539072172519563
0.00045780959861706216 0.017306780980976447 -0.002952538127462314
-0.00013255382275044122 0.021286576768151173 -0.0020584784424397475
-0.0007201482309470062 0.02516363200236962 -0.00112387659506746
-0.0011946371146526612 0.028874730336778006 -1.3164692028167031e-5
-0.0014108622120167862 0.03229147109691776 0.0015490134016525998
-0.0013224843579428829 0.03552089708403629 0.0033331036579090857
-0.0010167791708201568 0.03871925181271602 0.0050040407784345065
-0.0006138083932142036 0.04178203061809291 0.006785935740255375
-0.00020084691410191335 0.04475748847962349 0.008575305405978067
0.0001698744379422134 0.04770624845805675 0.010242143202283909
0.0004739400232210948 0.05059717830659696 0.011853212447877378
0.0007082255455298663 0.053395705697748264 0.01348265373833146
0.0008836440760600275 0.05610679908062244 0.015119812200141731
0.001017516815515788 0.05875549473381102 0.01671099736060486
0.0011275777072549662 0.06136472347944528 0.01820703391296731
0.0012277625198140337 0.0639402155580269 0.019595633316817074
0.00132638558954348 0.06646767578494314 0.02090745169448619
0.0014271324949937316 0.06892604746799672 0.022187645268114686
0.0015306083418583354 0.07130143049549223 0.023466022923429263
0.0016355657532635378 0.07359350935650792 0.024743261275785113
0.0017398364473795213 0.07581079506608539 0.026001108394524932
0.0018410131526058282 0.07796313248500795 0.027218451907567456
0.001936923789896676 0.08005775714806411 0.028379775160485194
0.0020259353317291845 0.08209871047044065 0.029476411310441417
0.0021071205190511294 0.08408706126088986 0.0305060682896701
0.002180316672546981 0.08602126644946763 0.03147205522234526
0.0022461021518325993 0.08789761953205062 0.03238232073221025
0.0023056987632523672 0.08971080738730466 0.03324825884473575
0.0023607022647827588 0.091455026600599 0.03408231502276
0.0024126938092907785 0.0931254823736802 0.034894771744319916
0.0024629658139780817 0.09471934206682783 0.03569170362489927
0.0025123806343549317 0.09623609679251958 0.03647420197731143
0.0025613283706516186 0.09767749398154431 0.037238519424136585
0.0026097549007438213 0.09904717954156499 0.03797683729115995
0.0026572361369983943 0.10035015969705453 0.038678419695353704
0.002703078927872171 0.1015918150912287 0.03933172781010489
0.0027464329900004744 0.10277552829123926 0.039929507696747434
0.0027864017842759935 0.10390071735172987 0.040473007341125425
0.0028221433614242725 0.10496264211784839 0.040972392038123445
0.0028529549202113143 0.10595341128666068 0.041444584741495746
0.002878337166053322 0.10686332925403269 0.04191037774140621
0.0028980365508205295 0.10768046609176042 0.04239535485144954
0.0029120651374179955 0.10839010831809935 0.04293106923505161
0.002920699186668212 0.10897726696224053 0.043549664843843636
0.0029244586304951574 0.10943067117463771 0.044275312092677384
0.002924070395798875 0.10974644902315212 0.045116314366820405
0.0029204190990956736 0.10993044881543064 0.046060129930050535
0.0029144889643634465 0.10999875081776829 0.04707227454001461
0.002907300946956263 0.10997636604339514 0.04809911190575158
0.006212993241944028 0.0028556851510145903 0.008641061309724718
0.0072288922610571306 0.0053148715559029015 0.01315564966741629
0.007974780507892725 0.008343014713876884 0.016270320666162987
0.008270023946844132 0.011702232684353352 0.01849521377380969
0.008140225139500825 0.015282042303273544 0.02006726090028021
0.007751519283975376 0.018919943206029247 0.021334945202062205
0.007318662739924205 0.022417729733345493 0.022723320087154993
0.0069707766105224795 0.02583593123748955 0.024102579940727453
0.006702226685381192 0.029299501795853472 0.02520475987906644
0.006460614097576536 0.03268114045146506 0.026302857685386365
0.006208498480286784 0.03601121278913045 0.02733175415292507
0.005928720355726676 0.03933615465301974 0.028191867292500124
0.00562110152420414 0.04261370994972376 0.02897381558886118
0.005297776270156929 0.045800560672144566 0.02977049480801247
0.004977662142563614 0.04889479426811549 0.030586006431311246
0.004680078492205027 0.051915998698738614 0.03137834394061543
0.0044193472589770496 0.05488269644866773 0.03210778573939992
0.0042022226504668725 0.057797033270399215 0.0327697302465865
0.004028605706719037 0.06064191373074287 0.03340083873696075
0.003894567528214928 0.06339432293835344 0.034050466804287284
0.003794542923454683 0.06603921261975727 0.03475088557517208
0.0037223892098821663 0.06857582773127248 0.03550371424601625
0.0036720478837599236 0.07101284377951267 0.03629034813284795
0.0036379885391020494 0.07336077594757412 0.03708823735274681
0.003615480687410345 0.07562794344633518 0.037879541300411025
0.003600729157216099 0.07781979773313182 0.03865256928785677
0.0035909263662617956 0.07993906418547825 0.03940147672414377
0.003584242976167935 0.0819860299534329 0.040125647813984526
0.00357976601221264 0.08395892592731216 0.040828876425338674
0.003577378730160166 0.08585442319766909 0.04151830142755295
0.0035774796054096774 0.08766869542673543 0.04220212842845158
0.003580588564800478 0.08939887038446898 0.04288651694523734
0.0035870678637920984 0.09104394268020308 0.043573623045152714
0.0035969747054953923 0.09260510125076844 0.04426089704493617
0.0036100119296844893 0.09408563459102394 0.04494128674460481
0.0036255480079795204 0.09549055227794626 0.045604049071663336
0.0036426825552804717 0.0968260326865517 0.046235934458131754
0.0036603380175139954 0.09809842917964305 0.04682331807351097
0.003677362157174432 0.09931189552040287 0.047357292143909824
0.0036926294639041822 0.10046642269160264 0.047837876006837324
0.0037051326977571345 0.10155765326644617 0.04827441419421352
0.003714058455611533 0.10257790076311052 0.04868339041950193
0.003718842962038476 0.1035175123857237 0.04908550517025249
0.003719206248598144 0.10436445784744683 0.049506557479846836
0.003715164522496519 0.10510380127683093 0.04997857742797113
0.0037070218583473346 0.10572023204425436 0.050534398765806274
0.003695343396461056 0.10620208210515997 0.051199043695654034
0.003680913018392471 0.10654503086293338 0.051981777766854545
0.0036646790161518838 0.10675445028149175 0.05287108076561078
0.003647691596346039 0.10684593954218964 0.05383350013955363
0.0036310361855396924 0.10684404538420537 0.05481639523663914
0.005410766489344848 0.005841941396472292 0.007131179435824544
0.005892211109850776 0.008935045902193376 0.010196433207002949
0.006132458642509649 0.01234113749297729 0.012410698343751997
0.006047255650667177 0.015925379216675185 0.014063133623095315
0.005720055990603616 0.019580539858382002 0.015383697127491453
0.005325630843128663 0.0231474025314775 0.016713830572159503
0.005016871435172548 0.026571668886682397 0.01816997714290113
0.004834968294868498 0.02995580599959767 0.019532395486965656
0.004732241848104854 0.03330540114659557 0.02078910365150604
0.00464908530328423 0.036577072352437866 0.02203313458264597
0.004547585503985086 0.03981322990801635 0.02317353911806719
0.004411660012619469 0.04301912757161053 0.02419905053678065
0.004242349868979272 0.046154461983743775 0.025196099672103723
0.00405227310746894 0.04919857119989386 0.026208996207055545
0.003859297849485217 0.052161834089374456 0.027215482584565825
0.0036804214720396232 0.05506453795693441 0.028172052539202276
0.003527506244425096 0.05791801602433413 0.02905440189846795
0.003405829147614405 0.060715591543299544 0.029876848995243132
0.003315379723667389 0.0634378041575286 0.030681126698293124
0.003253134023982613 0.06606601057972765 0.031507215666240256
0.003214621311891553 0.06859250761313618 0.03237163545784742
0.0031948391851961662 0.0710212898693686 0.033265819600862834
0.0031888698585714084 0.07336184834154422 0.03416941459485959
0.0031922930777549615 0.07562338097685001 0.03506269537844077
0.003201436081938149 0.07781246139461323 0.035931564779466255
0.0032135028026517493 0.07993279468589509 0.036768077204514145
0.003226618152360912 0.08198545126588637 0.037569937140800036
0.0032398057236901635 0.08396921920296918 0.03833974358406564
0.003252904392775423 0.0858810592867874 0.03908401414195261
0.003266372004343082 0.08771689873263966 0.03981148292943867
0.0032809500730880004 0.08947290080098656 0.04053037786101834
0.0032973286136308236 0.09114665795431552 0.04124586191754867
0.0033159342695244357 0.09273782133153274 0.04195868323405967
0.0033368336138182735 0.09424822478743014 0.04266490909625888
0.0033597203855484335 0.0956816542662525 0.043356420520512626
0.0033839603409402744 0.09704338676651418 0.044021900946987366
0.003408672097906746 0.09833942004835844 0.04464848813754835
0.0034328265552422406 0.09957478968532572 0.04522538326988934
0.0034553512046890385 0.10075140003487322 0.04574850243626429
0.003475228953835527 0.10186694841796559 0.04622278374780018
0.0034915839677176984 0.1029153394366474 0.0466612988275957
0.0035037495424018335 0.10388787249839954 0.04708270615652066
0.0035113151685979642 0.1047737132556631 0.04751024006789422
0.003514151750190315 0.10555941897283663 0.04797272860124438
0.003512415433327221 0.10622993440544948 0.048502457832528434
0.0035065316976985676 0.10677186007314014 0.04912816304011274
0.0034971622838568268 0.10717730738775874 0.04986676135587794
0.003485158199815951 0.10744691765898227 0.050716877486783364
0.0034715024876191118 0.10759129613803038 0.0516557683981948
0.003457246657122113 0.10763063395504356 0.05264013407179307

CELLS 100 350
4 0 51 52 1
4 1 52 53 2
4 2 53 54 3
4 3 54 55 4
4 4 55 56 5
4 5 56 57 6
4 6 57 58 7
4 7 58 59 8
4 8 59 60 9
4 9 60 61 10
4 10 61 62 11
4 11 62 63 12
4 12 63 64 13
4 13 64 65 14
4 14 65 66 15
4 15 66 67 16
4 16 67 68 17
4 17 68 69 18
4 18 69 70 19
4 19 70 71 20
4 20 71 72 21
4 21 72 73 22
4 22 73 74 23
4 23 74 75 24
4 24 75 76 25
4 25 76 77 26
4 26 77 78 27
4 27 78 79 28
4 28 79 80 29
4 29 80 81 30
4 30 81 82 31
4 31 82 83 32
4 32 83 84 33
4 33 84 85 34
4 34 85 86 35
4 35 86 87 36
4 36 87 88 37
4 37 88 89 38
4 38 89 90 39
4 39 90 91 40
4 40 91 92 41
4 41 92 93 42
4 42 93 94 43
4 43 94 95 44
4 44 95 96 45
4 45 96 97 46
4 46 97 98 47
4 47 98 99 48
4 48 99 100 49
4 49 100 101 50
1 102
1 103
1 104
1 105
1 106
1 107
1 108
1 109
1 110
1 111
1 112
1 113
1 114
1 115
1 116
1 117
1 118
1 119
1 120
1 121
1 122
1 123
1 124
1 125
1 126
1 127
1 128
1 129
1 130
1 131
1 132
1 133
1 134
1 135
1 136
1 137
1 138
1 139
1 140
1 141
1 142
1 143
1 144
1 145
1 146
1 147
1 148
1 149
1 150
1 151

CELL_TYPES 100
9
9
9
9
9
9
9
9
9
9
9
9
9
9
9
9
9
9
9
9
9
9
9
9
9
9
9
9
9
9
9
9
9
9
9
9
9
9
9
9
9
9
9
9
9
9
9
9
9
9
1
1
1
1
1
1
1
1
1
1
1
1
1
1
1
1
1
1
1
1
1
1
1
1
1
1
1
1
1
1
1
1
1
1
1
1
1
1
1
1
1
1
1
1
1
1
1
1
1
1

CELL_DATA 100

VECTORS S float
4.218345422857712e-17 2.304419760787936e-17 -1.725730423553397e-17
4.95893417948855e-18 -4.63329169775643e-18 -5.03545218016146e-18
-3.2665683240066e-19 -1.87516151335569e-18 -9.1094770057763e-19
2.0377973018581998e-19 -1.497441838436524e-17 -8.54078865636333e-18
1.5995533988699998e-21 -1.6981967622347698e-18 -9.772601805896999e-19
3.335606879271e-20 1.318433378938475e-17 7.70527249099919e-18
1.6961518916364e-19 3.569947994591242e-17 2.118868161083397e-17
-8.037402497878199e-19 -1.2015016334098921e-16 -7.239146173812089e-17
4.5347245852999994e-21 5.4531469705042e-19 3.3342535608928e-19
-4.5553972823493e-19 -4.695875650264327e-17 -2.910336246114798e-17
6.7197624292351e-19 6.203432129793748e-17 3.891107192414998e-17
-1.3552535481545e-19 -1.1571097064918379e-17 -7.334295005607079e-18
-2.3647913031573997e-19 -1.904042445412878e-17 -1.2176415828937059e-17
-1.48158937722983e-18 -1.1414130771918486e-16 -7.354085190642053e-17
1.2791973580021699e-18 9.768154107043251e-17 6.333888374619604e-17
2.46316913501669e-18 1.8876630626207547e-16 1.2306782945939105e-16
-4.8776795735397e-19 -3.785885683260772e-17 -2.4798081095339777e-17
1.7183516087230999e-19 1.366129875767793e-17 8.98477706999862e-18
-5.8926515257627e-19 -4.7743511607607316e-17 -3.151026902543518e-17
5.8990456917711e-19 4.7076504973263316e-17 3.116171507979324e-17
5.162355857328399e-19 4.2462294455451675e-17 2.81819655580375e-17
-5.9921578423312e-19 -5.160660251436141e-17 -3.4328833063988446e-17
-1.6251774430005699e-18 -1.433762390356865e-16 -9.548357363500958e-17
-5.3127931730659e-19 -4.7633233633750265e-17 -3.180334831809608e-17
-1.03025587125129e-18 -9.629906955177499e-17 -6.428833144793486e-17
6.8751971930328e-19 6.718111335385051e-17 4.4826803282998376e-17
4.0545946955036e-19 4.196006464787875e-17 2.797212921005832e-17
4.2939715348905e-19 4.7606023518824595e-17 3.16922451854403e-17
7.3020889194147e-19 8.759379467993914e-17 5.820563202408867e-17
5.6281910428656e-19 7.384483187994627e-17 4.895752714090812e-17
1.9005643803858998e-19 2.7123661425518797e-17 1.793391557974432e-17
1.9922137650449998e-20 3.14931272392944e-18 2.07598204881631e-18
-1.2129062538147e-19 -2.1285746934418237e-17 -1.398115425538283e-17
3.8914538605762e-19 7.38325216367733e-17 4.832552402666602e-17
7.323752887026e-20 1.491127781212415e-17 9.725111780540079e-18
-2.5964135839248998e-19 -5.645702829219839e-17 -3.669027851027906e-17
3.70520496585e-20 8.434524359227239e-18 5.46224223182882e-18
-4.8918599507889997e-20 -1.156979737666969e-17 -7.467220722738189e-18
9.356681071554999e-20 2.3133885294817448e-17 1.4882213297550908e-17
2.6699359729540996e-19 6.757644847894162e-17 4.333856471422145e-17
2.952755906012e-20 7.731174817774059e-18 4.94392079265323e-18
2.312263692799e-20 6.018589695672829e-18 3.838486309951e-18
1.3794134440066e-19 2.939034240705972e-17 1.8698348388617118e-17
3.7293046732472e-19 6.548141905174435e-17 4.1567553481008446e-17
3.7307831114136996e-19 4.9174362488226235e-17 3.115420447691749e-17
8.200133854187999e-20 8.888447870764059e-18 5.6230449453748895e-18
1.0728388850479799e-18 1.0037385684806501e-16 6.340409415407613e-17
2.1856603328063e-19 1.69592354586892e-17 1.0699088280405789e-17
2.39286145154508e-18 1.423548375894525e-16 8.97105070616393e-17
3.11186980804365e-18 9.515221621181292e-17 5.991090927378452e-17
4.218345422857712e-17 2.304419760787936e-17 -1.725730423553397e-17
4.95893417948855e-18 -4.63329169775643e-18 -5.03545218016146e-18
-3.2665683240066e-19 -1.87516151335569e-18 -9.1094770057763e-19
2.0377973018581998e-19 -1.497441838436524e-17 -8.54078865636333e-18
1.5995533988699998e-21 -1.6981967622347698e-18 -9.772601805896999e-19
3.335606879271e-20 1.318433378938475e-17 7.70527249099919e-18
1.6961518916364e-19 3.569947994591242e-17 2.118868161083397e-17
-8.037402497878199e-19 -1.2015016334098921e-16 -7.239146173812089e-17
4.5347245852999994e-21 5.4531469705042e-19 3.3342535608928e-19
-4.5553972823493e-19 -4.695875650264327e-17 -2.910336246114798e-17
6.7197624292351e-19 6.203432129793748e-17 3.891107192414998e-17
-1.3552535481545e-19 -1.1571097064918379e-17 -7.334295005607079e-18
-2.3647913031573997e-19 -1.904042445412878e-17 -1.2176415828937059e-17
-1.48158937722983e-18 -1.1414130771918486e-16 -7.354085190642053e-17
1.2791973580021699e-18 9.768154107043251e-17 6.333888374619604e-17
2.46316913501669e-18 1.8876630626207547e-16 1.2306782945939105e-16
-4.8776795735397e-19 -3.785885683260772e-17 -2.4798081095339777e-17
1.7183516087230999e-19 1.366129875767793e-17 8.98477706999862e-18
-5.8926515257627e-19 -4.7743511607607316e-17 -3.151026902543518e-17
5.8990456917711e-19 4.7076504973263316e-17 3.116171507979324e-17
5.162355857328399e-19 4.2462294455451675e-17 2.81819655580375e-17
-5.9921578423312e-19 -5.160660251436141e-17 -3.4328833063988446e-17
-1.6251774430005699e-18 -1.433762390356865e-16 -9.548357363500958e-17
-5.3127931730659e-19 -4.7633233633750265e-17 -3.180334831809608e-17
-1.03025587125129e-18 -9.629906955177499e-17 -6.428833144793486e-17
6.8751971930328e-19 6.718111335385051e-17 4.4826803282998376e-17
4.0545946955036e-19 4.196006464787875e-17 2.797212921005832e-17
4.2939715348905e-19 4.7606023518824595e-17 3.16922451854403e-17
7.3020889194147e-19 8.759379467993914e-17 5.820563202408867e-17
5.6281910428656e-19 7.384483187994627e-17 4.895752714090812e-17
1.9005643803858998e-19 2.7123661425518797e-17 1.793391557974432e-17
1.9922137650449998e-20 3.14931272392944e-18 2.07598204881631e-18
-1.2129062538147e-19 -2.1285746934418237e-17 -1.398115425538283e-17
3.8914538605762e-19 7.38325216367733e-17 4.832552402666602e-17
7.323752887026e-20 1.491127781212415e-17 9.725111780540079e-18
-2.5964135839248998e-19 -5.645702829219839e-17 -3.669027851027906e-17
3.70520496585e-20 8.434524359227239e-18 5.46224223182882e-18
-4.8918599507889997e-20 -1.156979737666969e-17 -7.467220722738189e-18
9.356681071554999e-20 2.3133885294817448e-17 1.4882213297550908e-17
2.6699359729540996e-19 6.757644847894162e-17 4.333856471422145e-17
2.952755906012e-20 7.731174817774059e-18 4.94392079265323e-18
2.312263692799e-20 6.018589695672829e-18 3.838486309951e-18
1.3794134440066e-19 2.939034240705972e-17 1.8698348388617118e-17
3.7293046732472e-19 6.548141905174435e-17 4.1567553481008446e-17
3.7307831114136996e-19 4.9174362488226235e-17 3.115420447691749e-17
8.200133854187999e-20 8.888447870764059e-18 5.6230449453748895e-18
1.0728388850479799e-18 1.0037385684806501e-16 6.340409415407613e-17
2.1856603328063e-19 1.69592354586892e-17 1.0699088280405789e-17
2.39286145154508e-18 1.423548375894525e-16 8.97105070616393e-17
3.11186980804365e-18 9.515221621181292e-17 5.991090927378452e-17

SCALARS Gamma float
LOOKUP_TABLE default
-2.9747816909032978e-5
0.00010402406486304213
-0.0007901319389099366
0.009096038024239217
0.044834403658878155
0.08567082961090008
0.1332155019812995
0.17552170800306435
0.22063172469170172
0.25359592783264057
0.2736505742714673
0.2810675693686333
0.27746886114184754
0.2542233729327476
0.24391472889155896
0.23710687782062081
0.22781174401721876
0.22374662891922426
0.2207111467189701
0.21342505797112699
0.21360248303967438
0.21222668296527833
0.20333956647769316
0.1995460979575125
0.19618910427870168
0.19452063268834918
0.19458075346992515
0.195173933705193
0.19656719996578972
0.19872387832683147
0.19741041877188756
0.20321439002087888
0.20124026647413926
0.19897408582452075
0.19656055923418875
0.1936257939069634
0.19018692584762362
0.18626465070366746
0.18198825451449985
0.17481796625011292
0.1691958000149664
0.15844225380149596
0.14266356471820857
0.12301688974010096
0.10688125242537619
0.09108831968635984
0.0795477126234491
0.06708997474987083
0.05170009792520492
0.0273849738999999
-2.9747816909032978e-5
0.00010402406486304213
-0.0007901319389099366
0.009096038024239217
0.044834403658878155
0.08567082961090008
0.1332155019812995
0.17552170800306435
0.22063172469170172
0.25359592783264057
0.2736505742714673
0.2810675693686333
0.27746886114184754
0.2542233729327476
0.24391472889155896
0.23710687782062081
0.22781174401721876
0.22374662891922426
0.2207111467189701
0.21342505797112699
0.21360248303967438
0.21222668296527833
0.20333956647769316
0.1995460979575125
0.19618910427870168
0.19452063268834918
0.19458075346992515
0.195173933705193
0.19656719996578972
0.19872387832683147
0.19741041877188756
0.20321439002087888
0.20124026647413926
0.19897408582452075
0.19656055923418875
0.1936257939069634
0.19018692584762362
0.18626465070366746
0.18198825451449985
0.17481796625011292
0.1691958000149664
0.15844225380149596
0.14266356471820857
0.12301688974010096
0.10688125242537619
0.09108831968635984
0.0795477126234491
0.06708997474987083
0.05170009792520492
0.0273849738999999

VECTORS Ftot float
0.020244530378110973 -0.016132778908556487 0.027942792736895615
0.014166655317075965 -0.017183267991225624 0.029762293200874992
0.03904374044873251 -0.042891343665428884 0.07428998643342087
-0.07029277926878456 -0.07899174197053471 0.13681771047133798
-0.5945711055676197 -0.1719027827170417 0.2977443536283914
-1.3686102522858192 -0.28251473649347647 0.4893298774936379
-2.452155924000392 -0.4157594353136568 0.7201164656894047
-3.626442130681972 -0.5567190895662758 0.9642657486722851
-5.0423958695382805 -0.710231550419556 1.2301571304650964
-6.3372070449236135 -0.8368296146688128 1.4494314098846797
-7.407518079235007 -0.9283882099025674 1.6080155486991776
-8.179599022432699 -0.979040893125175 1.6957485695804262
-8.624285075653798 -0.9949832909515253 1.7233616126101408
-8.392445781581028 -0.9394775559843385 1.6272228595355203
-8.518791058315689 -0.9062416680806342 1.5696566130516403
-8.724919538217454 -0.8810140694763802 1.525961130516118
-8.800002572168765 -0.8428488840115813 1.4598570902107968
-9.04422332019383 -0.8176149089711464 1.416150563363838
-9.305362594779034 -0.8023742993218713 1.3897530531129692
-9.352342850815552 -0.7998919474708506 1.3854534935847385
-9.713053394268204 -0.7896040230915583 1.3676342858553776
-9.9931174530392 -0.7625464576815509 1.3207692078361264
-9.892543407573944 -0.7305743979566287 1.265391975969934
-10.008859947062362 -0.7135877879452424 1.2359703043818546
-10.126979462940762 -0.6931747565088946 1.2006138967975992
-10.315867791098267 -0.6779691642345731 1.1742770384192975
-10.586011227822715 -0.6614490230533088 1.1456633145451365
-10.87728088425454 -0.6409988295082133 1.1102425403004137
-11.206438462885982 -0.618927815131641 1.0720144220256071
-11.574019200253987 -0.5947794081243322 1.0301881541670956
-11.729716407986603 -0.5659878413523264 0.9803196976884694
-12.30408584695355 -0.5491200116604404 0.9511037596487039
-12.400783811535685 -0.5132877969640575 0.8890405432468519
-12.463868229313142 -0.49142694589092856 0.8511764384914959
-12.503201593356293 -0.4736945308505139 0.8204629947005988
-12.494907549642985 -0.4574185858301658 0.7922722309841581
-12.438926542109169 -0.4490521859006759 0.7777812012298408
-12.336324788207811 -0.44249307535530574 0.7664204885127989
-12.195400458504432 -0.4317606246926881 0.7478313386754187
-11.843393359294826 -0.4222820374681448 0.7314139440185363
-11.579294130141433 -0.4109735545741962 0.7118270770896937
-10.945071004382486 -0.4017995261613419 0.6959371937685493
-9.938812695903286 -0.45757874230747997 0.7925496301400276
-8.636787451818421 -0.4943326723717439 0.8562093043891661
-7.5565041057157325 -0.5890074371958361 1.02019080725913
-6.481327486819688 -0.6245684091302354 1.0817842174160408
-5.692485296550551 -0.64658065540145 1.1199105463465036
-4.825094883134381 -0.6708112524869401 1.1618791715963028
-3.7344972392006843 -0.6859008249100705 1.1880150776976552
-1.9858120546786877 -0.7171789456176544 1.242190371928463
0.020244530378110973 -0.016132778908556487 0.027942792736895615
0.014166655317075965 -0.017183267991225624 0.029762293200874992
0.03904374044873251 -0.042891343665428884 0.07428998643342087
-0.07029277926878456 -0.07899174197053471 0.13681771047133798
-0.5945711055676197 -0.1719027827170417 0.2977443536283914
-1.3686102522858192 -0.28251473649347647 0.4893298774936379
-2.452155924000392 -0.4157594353136568 0.7201164656894047
-3.626442130681972 -0.5567190895662758 0.9642657486722851
-5.0423958695382805 -0.710231550419556 1.2301571304650964
-6.3372070449236135 -0.8368296146688128 1.4494314098846797
-7.407518079235007 -0.9283882099025674 1.6080155486991776
-8.179599022432699 -0.979040893125175 1.6957485695804262
-8.624285075653798 -0.9949832909515253 1.7233616126101408
-8.392445781581028 -0.9394775559843385 1.6272228595355203
-8.518791058315689 -0.9062416680806342 1.5696566130516403
-8.724919538217454 -0.8810140694763802 1.525961130516118
-8.800002572168765 -0.8428488840115813 1.4598570902107968
-9.04422332019383 -0.8176149089711464 1.416150563363838
-9.305362594779034 -0.8023742993218713 1.3897530531129692
-9.352342850815552 -0.7998919474708506 1.3854534935847385
-9.713053394268204 -0.7896040230915583 1.3676342858553776
-9.9931174530392 -0.7625464576815509 1.3207692078361264
-9.892543407573944 -0.7305743979566287 1.265391975969934
-10.008859947062362 -0.7135877879452424 1.2359703043818546
-10.126979462940762 -0.6931747565088946 1.2006138967975992
-10.315867791098267 -0.6779691642345731 1.1742770384192975
-10.586011227822715 -0.6614490230533088 1.1456633145451365
-10.87728088425454 -0.6409988295082133 1.1102425403004137
-11.206438462885982 -0.618927815131641 1.0720144220256071
-11.574019200253987 -0.5947794081243322 1.0301881541670956
-11.729716407986603 -0.5659878413523264 0.9803196976884694
-12.30408584695355 -0.5491200116604404 0.9511037596487039
-12.400783811535685 -0.5132877969640575 0.8890405432468519
-12.463868229313142 -0.49142694589092856 0.8511764384914959
-12.503201593356293 -0.4736945308505139 0.8204629947005988
-12.494907549642985 -0.4574185858301658 0.7922722309841581
-12.438926542109169 -0.4490521859006759 0.7777812012298408
-12.336324788207811 -0.44249307535530574 0.7664204885127989
-12.195400458504432 -0.4317606246926881 0.7478313386754187
-11.843393359294826 -0.4222820374681448 0.7314139440185363
-11.579294130141433 -0.4109735545741962 0.7118270770896937
-10.945071004382486 -0.4017995261613419 0.6959371937685493
-9.938812695903286 -0.45757874230747997 0.7925496301400276
-8.636787451818421 -0.4943326723717439 0.8562093043891661
-7.5565041057157325 -0.5890074371958361 1.02019080725913
-6.481327486819688 -0.6245684091302354 1.0817842174160408
-5.692485296550551 -0.64658065540145 1.1199105463465036
-4.825094883134381 -0.6708112524869401 1.1618791715963028
-3.7344972392006843 -0.6859008249100705 1.1880150776976552
-1.9858120546786877 -0.7171789456176544 1.242190371928463

VECTORS D float
0.020093618779084273 -0.015529163714118359 0.02837993258137453
0.014916125717828847 -0.016426672323931014 0.029804205218986357
0.0314244770283272 -0.043030866016491025 0.07730938194356524
0.03866366359565818 -0.06103973050735049 0.10794241266403586
0.045983112445705715 -0.08082630404493304 0.14052810398295604
0.05041090803759905 -0.09673533287014686 0.16530361639497115
0.05248808458803044 -0.10856557893346472 0.18249516428517248
0.05858040448750895 -0.12936181157642282 0.21405506934111312
0.06276193077770133 -0.14718505536516882 0.2398664778957985
0.06647902428097262 -0.16540751181043684 0.26584719358420583
0.06980532561923683 -0.18426081805225836 0.2925539366126728
0.07201751684614463 -0.2019354394197654 0.3172567191626006
0.07456472955312357 -0.22235653479817646 0.3462537629743243
0.07316348357619887 -0.23216035764949716 0.3588575315415347
0.06825183223913328 -0.23044053522533212 0.354008118177063
0.06390036738420964 -0.2294357176035765 0.35063863329285283
0.058664393612834605 -0.22379364615056732 0.3405084839329162
0.05370516517171109 -0.21743017024769834 0.329574129209873
0.05125093551825194 -0.21997498187715062 0.33234174236481245
0.055037676964295075 -0.2502628851983477 0.3770342855796072
0.05210321616615945 -0.2509959054895494 0.3772258003012823
0.04687772218331132 -0.2394774846793956 0.35918871663780644
0.044532562731076225 -0.23911618573370813 0.3582941524308896
0.04334347682183114 -0.24744586868975016 0.3698861913711163
0.04151266562927973 -0.25261495946021295 0.3777328845911754
0.04005376246392917 -0.2608436017589705 0.39030723907331694
0.03789433764150087 -0.2654846283284739 0.3976954155367477
0.035199126563667395 -0.26694997747786275 0.4005179319778995
0.032321481831553305 -0.2672106577647771 0.4017204735347318
0.029271422083604712 -0.2657836125331127 0.40055682575536333
0.02659661968128684 -0.26732640874130625 0.40402867459588276
0.024109041878924674 -0.2704301522929643 0.4100174259140685
0.02107848628867127 -0.2663522150019531 0.40532770883258606
0.019273760021551116 -0.2753372232937491 0.42050948459963167
0.01764626581843026 -0.2872277891898507 0.4402665067189577
0.015998459624485505 -0.2991799110988484 0.46024875060147247
0.014660611456917171 -0.3178387530329679 0.4906914386625193
0.013247034103765478 -0.3362802690113892 0.5209497204270801
0.011571623527862526 -0.347782325046591 0.5405428301856343
0.00998128388529012 -0.3595633396439178 0.5605942125143978
0.008349846444305097 -0.3655586738146251 0.5716012819278788
0.00690173351365694 -0.373132663720948 0.5850151954144415
0.006593324978869782 -0.44869595682900487 0.7052183455830519
0.005710404559630515 -0.50112731780149 0.789375259392797
0.0052292758826509985 -0.6114203278716409 0.9650143346876463
0.003929832011201216 -0.6561957531376174 1.0372030723482808
0.0026871872726865554 -0.6837065810173083 1.0823178611045903
0.001533778567215407 -0.7123474785798521 1.1291180210061529
0.00045349921536272044 -0.7301769215703475 1.1586505898300636
-0.0005261237648799146 -0.7640621175896524 1.213532592345728
0.020093618779084273 -0.015529163714118359 0.02837993258137453
0.014916125717828847 -0.016426672323931014 0.029804205218986357
0.0314244770283272 -0.043030866016491025 0.07730938194356524
0.03866366359565818 -0.06103973050735049 0.10794241266403586
0.045983112445705715 -0.08082630404493304 0.14052810398295604
0.05041090803759905 -0.09673533287014686 0.16530361639497115
0.05248808458803044 -0.10856557893346472 0.18249516428517248
0.05858040448750895 -0.12936181157642282 0.21405506934111312
0.06276193077770133 -0.14718505536516882 0.2398664778957985
0.06647902428097262 -0.16540751181043684 0.26584719358420583
0.06980532561923683 -0.18426081805225836 0.2925539366126728
0.07201751684614463 -0.2019354394197654 0.3172567191626006
0.07456472955312357 -0.22235653479817646 0.3462537629743243
0.07316348357619887 -0.23216035764949716 0.3588575315415347
0.06825183223913328 -0.23044053522533212 0.354008118177063
0.06390036738420964 -0.2294357176035765 0.35063863329285283
0.058664393612834605 -0.22379364615056732 0.3405084839329162
0.05370516517171109 -0.21743017024769834 0.329574129209873
0.05125093551825194 -0.21997498187715062 0.33234174236481245
0.055037676964295075 -0.2502628851983477 0.3770342855796072
0.05210321616615945 -0.2509959054895494 0.3772258003012823
0.04687772218331132 -0.2394774846793956 0.35918871663780644
0.044532562731076225 -0.23911618573370813 0.3582941524308896
0.04334347682183114 -0.24744586868975016 0.3698861913711163
0.04151266562927973 -0.25261495946021295 0.3777328845911754
0.04005376246392917 -0.2608436017589705 0.39030723907331694