# vtk DataFile Version 4.0
[MyVLM domain - lattices] 
ASCII
DATASET UNSTRUCTURED_GRID
POINTS 152 float
0.0018916144324157278 -0.009314157889595043 -0.003964402281066063
0.0010688609733395774 -0.011360409562745864 -0.00769876600804185
0.00045780959861706216 -0.013386359803769753 -0.011359908473294374
-0.00013255382275044122 -0.015259633771320108 -0.014983299408660652
-0.0007201482309470062 -0.017035810286237792 -0.018554046513980103
-0.0011946371146526612 -0.01857040363269449 -0.022110864620126756
-0.0014108622120167862 -0.019569944410996933 -0.025732388615751674
-0.0013224843579428829 -0.020279086995088437 -0.029353063558931997
-0.0010167791708201568 -0.021054937690086387 -0.032877203103599456
-0.0006138083932142036 -0.0216586432236686 -0.03636880779118233
-0.00020084691410191335 -0.022200493981092317 -0.039798325402018005
0.0001698744379422134 -0.02281904852772798 -0.04312862928041106
0.0004739400232210948 -0.02344315177177584 -0.04637878537574659
0.0007082255455298663 -0.02399378605823531 -0.04956996640486983
0.0008836440760600275 -0.024482307151275008 -0.05269912959994235
0.001017516815515788 -0.02496593734882905 -0.05575094229244363
0.0011275777072549662 -0.025497086769720567 -0.058711361233359814
0.0012277625198140337 -0.02608885230964122 -0.06157687712006696
0.00132638558954348 -0.026708561248883718 -0.06435624458142518
0.0014271324949937316 -0.02730808693356006 -0.06706235911547816
0.0015306083418583354 -0.027855659612832664 -0.06970373340130658
0.0016355657532635378 -0.028350558162757337 -0.07228056066348891
0.0017398364473795213 -0.028812235148404895 -0.07478762860292372
0.0018410131526058282 -0.029263191739619863 -0.07721890804932242
0.001936923789896676 -0.029719965295413698 -0.07956996783069294
0.0020259353317291845 -0.03019179277418856 -0.08183833291149091
0.0021071205190511294 -0.03068111701874293 -0.08402334873396122
0.002180316672546981 -0.031184411226650773 -0.08612596030196581
0.0022461021518325993 -0.03169320390393732 -0.0881484375454739
0.0023056987632523672 -0.03219535151214364 -0.09009403431580883
0.0023607022647827588 -0.0326775899106019 -0.09196630472875081
0.0024126938092907785 -0.033128960227242196 -0.09376818520522093
0.0024629658139780817 -0.03354298825091411 -0.0955014105048686
0.0025123806343549317 -0.03391851088090718 -0.09716629227958988
0.0025613283706516186 -0.03425952200172997 -0.09876176037125606
0.0026097549007438213 -0.034574354609589124 -0.100285581960263
0.0026572361369983943 -0.03487445080708256 -0.10173469114445992
0.002703078927872171 -0.035172108459008485 -0.10310579272090548
0.0027464329900004744 -0.03547505867702687 -0.10439681514447381
0.0027864017842759935 -0.03578197138125215 -0.10560811480899611
0.0028221433614242725 -0.03608201259121844 -0.10674259467078903
0.0028529549202113143 -0.036357146140490716 -0.10780508750608338
0.002878337166053322 -0.036585211996523474 -0.10880153107770399
0.0028980365508205295 -0.0367389434110447 -0.1097392314888306
0.0029120651374179955 -0.03678471161478846 -0.11062719954103037
0.002920699186668212 -0.03668825818750981 -0.11147461475034201
0.0029244586304951574 -0.03642382275478475 -0.11228837958828908
0.002924070395798875 -0.035982555724465584 -0.11307086529594093
0.0029204190990956736 -0.03537782384358547 -0.1138184902642246
0.0029144889643634465 -0.034646379770309065 -0.11452140664806516
0.002907300946956263 -0.03384538805668664 -0.11516429725190504
0.006212993241944028 0.004783837966727069 -0.007741948885664891
0.0072288922610571306 0.006661478740134575 -0.012527716424882564
0.007974780507892725 0.007101002248565597 -0.016849480590261662
0.008270023946844132 0.0066461055605534485 -0.02085292457224286
0.008140225139500825 0.005549306258028768 -0.02460571025297912
0.007751519283975376 0.0041820111474791906 -0.028207355786332242
0.007318662739924205 0.0029972341720830914 -0.031779245892536896
0.0069707766105224795 0.001856630944253686 -0.035284311304661836
0.006702226685381192 0.0004746095211440762 -0.03864602789225639
0.006460614097576536 -0.0008578741845875718 -0.041942357057150395
0.006208498480286784 -0.0022102230010959986 -0.04515470236758733
0.005928720355726676 -0.0036885695431070073 -0.04825462567516081
0.00562110152420414 -0.0051963343306570976 -0.051268005373532495
0.005297776270156929 -0.006634510800170569 -0.05422137019145785
0.004977662142563614 -0.007998727669809535 -0.05711589141037524
0.004680078492205027 -0.009333754698066946 -0.05993957300965115
0.0044193472589770496 -0.010681926416868737 -0.06268107148564406
0.0042022226504668725 -0.01204814710494758 -0.06533907274082808
0.004028605706719037 -0.013393343863839405 -0.06792404632679265
0.003894567528214928 -0.014664914428209016 -0.07045008697805435
0.003794542923454683 -0.01582846483711065 -0.0729264105286731
0.0037223892098821663 -0.016882269381415436 -0.07535347938101637
0.0036720478837599236 -0.01784615658405497 -0.07772598049837753
0.0036379885391020494 -0.018744159686941264 -0.08003747419299474
0.003615480687410345 -0.019595292872302605 -0.08228286563009522
0.003600729157216099 -0.02041201585593554 -0.08445881623889334
0.0035909263662617956 -0.021200557693150036 -0.08656365694904919
0.003584242976167935 -0.02196157468700385 -0.08859721190468846
0.00357976601221264 -0.022691023404243775 -0.090560564540486
0.003577378730160166 -0.02338129537193032 -0.09245575354062156
0.0035774796054096774 -0.024023645207279426 -0.09428512222334966
0.003580588564800478 -0.024611508212482307 -0.09605042959414668
0.0035870678637920984 -0.025142586491545445 -0.09775229137238842
0.0035969747054953923 -0.025619597449026532 -0.09938997943171811
0.0036100119296844893 -0.02605005718728404 -0.10096147983857856
0.0036255480079795204 -0.026445415471315382 -0.1024637246376852
0.0036426825552804717 -0.02681979344195385 -0.10389293008075556
0.0036603380175139954 -0.027187712187781186 -0.10524520525383091
0.003677362157174432 -0.0275586654469946 -0.10651800631742815
0.0036926294639041822 -0.027932632610040004 -0.1077113387938607
0.0037051326977571345 -0.028299654450211757 -0.10882787124988155
0.003714058455611533 -0.028642162935131357 -0.10987231102557911
0.003718842962038476 -0.02893809587375594 -0.11085056966722659
0.003719206248598144 -0.029159957140604636 -0.11177001473944156
0.003715164522496519 -0.029273609678013963 -0.11263979323925696
0.0037070218583473346 -0.029244059890327745 -0.11346928167236908
0.003695343396461056 -0.029044639584047485 -0.11426562575968947
0.003680913018392471 -0.02866547371061857 -0.11503147151250355
0.0036646790161518838 -0.028118840297649394 -0.115763529043229
0.003647691596346039 -0.02744039244748639 -0.1164522451318844
0.0036310361855396924 -0.02668623357891208 -0.11708258691271439
0.005410766489344848 0.0017076728335305032 -0.009059020527593786
0.005892211109850776 0.002067584199948114 -0.013398783190846116
0.006132458642509649 0.0015744162315334087 -0.017431302921183573
0.006047255650667177 0.0005363489247735947 -0.02123915629978834
0.005720055990603616 -0.0008015327128010524 -0.024888013656505118
0.005325630843128663 -0.002075326510625571 -0.028475382284060734
0.005016871435172548 -0.0031609295071343803 -0.03203451547078499
0.004834968294868498 -0.004292537911122692 -0.03550266053166076
0.004732241848104854 -0.005482921863010684 -0.03887639571787527
0.00464908530328423 -0.006632928595226454 -0.04218228893342669
0.004547585503985086 -0.007839490017678665 -0.04539436735133418
0.004411660012619469 -0.009114613990099517 -0.0485094134752797
0.004242349868979272 -0.010366184152811769 -0.051552109809448424
0.00405227310746894 -0.01154697607743133 -0.054535110101288926
0.003859297849485217 -0.012680711450466686 -0.05745205814405814
0.0036804214720396232 -0.013813758432919584 -0.06029052962646114
0.003527506244425096 -0.014972019955601344 -0.0630435838791054
0.003405829147614405 -0.016140235808110737 -0.0657153098630443
0.003315379723667389 -0.017273927882323632 -0.06831762545143055
0.003253134023982613 -0.018330485542793967 -0.07086194812962089
0.003214621311891553 -0.019292302553896034 -0.07335299547423299
0.0031948391851961662 -0.020168508900946683 -0.07578832111307429
0.0031888698585714084 -0.020980796962626686 -0.07816211259079538
0.0031922930777549615 -0.02175018933909565 -0.08046873691866066
0.003201436081938149 -0.02249171053178959 -0.08270416829364369
0.0032135028026517493 -0.02321382880502353 -0.08486613765115997
0.003226618152360912 -0.023918990673231923 -0.0869539894496425
0.0032398057236901635 -0.024604426175541372 -0.08896846589787039
0.003252904392775423 -0.025263188968075407 -0.09091142826307567
0.003266372004343082 -0.025885970395046847 -0.09278537079205916
0.0032809500730880004 -0.026464001299641163 -0.09459264317330761
0.0032973286136308236 -0.026991779073779948 -0.09633471982621186
0.0033159342695244357 -0.027468506369192156 -0.09801181439959726
0.0033368336138182735 -0.027898374598946108 -0.099622803807717
0.0033597203855484335 -0.02829003682338967 -0.1011653694700388
0.0033839603409402744 -0.02865555401955993 -0.10263627965750567
0.003408672097906746 -0.029008634519412026 -0.10403186123364061
0.0034328265552422406 -0.02936078750504534 -0.10534903032239457
0.0034553512046890385 -0.029716365528672857 -0.10658662066091709
0.003475228953835527 -0.03007010564415323 -0.10774604245137649
0.0034915839677176984 -0.030408076360967307 -0.1088310286254068
0.0035037495424018335 -0.03071039182045951 -0.10984690758277557
0.0035113151685979642 -0.030952289306331236 -0.1108003144733174
0.003514151750190315 -0.03110304443521112 -0.11169948187074459
0.003512415433327221 -0.031128247313415427 -0.11255362987828134
0.0035065316976985676 -0.030997272420677534 -0.11337096457935085
0.0034971622838568268 -0.030692089795406066 -0.11415631708760116
0.003485158199815951 -0.030214165199106868 -0.1149092946534204
0.0034715024876191118 -0.029587737731162737 -0.11562340242970377
0.003457246657122113 -0.02885895573827389 -0.11628627500422084

CELLS 100 350
4 0 51 52 1
4 1 52 53 2
4 2 53 54 3
4 3 54 55 4
4 4 55 56 5
4 5 56 57 6
4 6 57 58 7
4 7 58 59 8
4 8 59 60 9
4 9 60 61 10
4 10 61 62 11
4 11 62 63 12
4 12 63 64 13
4 13 64 65 14
4 14 65 66 15
4 15 66 67 16
4 16 67 68 17
4 17 68 69 18
4 18 69 70 19
4 19 70 71 20
4 20 71 72 21
4 21 72 73 22
4 22 73 74 23
4 23 74 75 24
4 24 75 76 25
4 25 76 77 26
4 26 77 78 27
4 27 78 79 28
4 28 79 80 29
4 29 80 81 30
4 30 81 82 31
4 31 82 83 32
4 32 83 84 33
4 33 84 85 34
4 34 85 86 35
4 35 86 87 36
4 36 87 88 37
4 37 88 89 38
4 38 89 90 39
4 39 90 91 40
4 40 91 92 41
4 41 92 93 42
4 42 93 94 43
4 43 94 95 44
4 44 95 96 45
4 45 96 97 46
4 46 97 98 47
4 47 98 99 48
4 48 99 100 49
4 49 100 101 50
1 102
1 103
1 104
1 105
1 106
1 107
1 108
1 109
1 110
1 111
1 112
1 113
1 114
1 115
1 116
1 117
1 118
1 119
1 120
1 121
1 122
1 123
1 124
1 125
1 126
1 127
1 128
1 129
1 130
1 131
1 132
1 133
1 134
1 135
1 136
1 137
1 138
1 139
1 140
1 141
1 142
1 143
1 144
1 145
1 146
1 147
1 148
1 149
1 150
1 151

CELL_TYPES 100
9
9
9
9
9
9
9
9
9
9
9
9
9
9
9
9
9
9
9
9
9
9
9
9
9
9
9
9
9
9
9
9
9
9
9
9
9
9
9
9
9
9
9
9
9
9
9
9
9
9
1
1
1
1
1
1
1
1
1
1
1
1
1
1
1
1
1
1
1
1
1
1
1
1
1
1
1
1
1
1
1
1
1
1
1
1
1
1
1
1
1
1
1
1
1
1
1
1
1
1

CELL_DATA 100

VECTORS S float
-2.76234190783895e-18 1.04844617384718e-18 -4.6808333098759e-19
-2.2919609784761898e-18 6.810915452886e-20 -2.7967896772996498e-18
-3.6208807977999997e-20 -3.682274846435e-20 -2.0797895323726e-19
2.594174269028e-20 1.8409180453172e-19 8.8011663833611e-19
1.4486618004727e-19 2.1130363649060197e-18 1.0377466390999219e-17
1.0281633215088999e-19 2.7704693167424397e-18 1.418982941975605e-17
8.816208433696999e-20 5.08423655206157e-18 2.7257495978839857e-17
-5.62854656874e-21 -2.34146806005861e-18 -1.316599576874374e-17
6.509762455827e-20 -6.2026412936940594e-18 -3.6598444470345866e-17
6.036849620166e-20 -2.67132936143805e-18 -1.654200979869746e-17
-6.141833649706e-20 1.84190704536805e-18 1.1919229863601549e-17
-3.021597477179e-19 7.06674191460929e-18 4.7609478623536876e-17
-5.734462108869e-19 1.117058362955338e-17 7.800676243228547e-17
7.182525206483e-20 -1.22350069939524e-18 -8.81857272479016e-18
5.680263205605999e-20 -8.916477001473199e-19 -6.60982131518715e-18
5.604920744152999e-20 -8.050267878460199e-19 -6.1620092243931395e-18
3.5891836695123e-19 -4.9611733659665496e-18 -3.8855858236988196e-17
-9.3279098384704e-19 1.2595258808359459e-17 1.0073066020805325e-16
3.0718677451678e-19 -4.03718182157503e-18 -3.290797645216019e-17
-3.744445009842e-19 4.66988491001608e-18 3.87266453537467e-17
-4.022926987e-21 4.954103369154e-20 4.1758886895532e-19
-1.4494377120147e-19 1.7946044322017e-18 1.536026533356332e-17
-2.5961758248630997e-19 3.2370735514680296e-18 2.816235771646098e-17
8.777151336286999e-20 -1.1095132692876199e-18 -9.720686604278949e-18
-6.175111451416e-20 8.0029468703887e-19 7.0466959667252e-18
-9.027570782613999e-20 1.2090816492914999e-18 1.067379958073155e-17
2.9540946584889996e-20 -4.1576561653705997e-19 -3.67038154758544e-18
4.6288200919369996e-20 -6.9524926408976e-19 -6.1209235060572095e-18
1.7502056875994e-19 -2.8506073664096997e-18 -2.496088731556572e-17
3.0051474226469996e-20 -5.3929076693939e-19 -4.68497590246177e-18
5.878769117325e-20 -1.16321896905271e-18 -1.0003281286333149e-17
5.518391481146e-20 -1.2317396141986698e-18 -1.0467474032468949e-17
-1.796145542206e-20 4.5460537192029e-19 3.8146914867470695e-18
-9.755934484135999e-20 2.7480184951927e-18 2.271249938399458e-17
1.4516030660183e-19 -4.5159798274393096e-18 -3.676183405314296e-17
-2.686425958365e-20 9.1805511596118e-19 7.36226998403698e-18
-1.1922630198643998e-19 4.38287196733951e-18 3.464102000405906e-17
-9.080351761896e-20 3.5623922868070696e-18 2.776748956937624e-17
1.0527946159923e-19 -4.4139893063434495e-18 -3.399356269516235e-17
1.521555262656e-20 -6.7000440659541e-19 -5.0959177318651395e-18
4.957987954018e-20 -2.31875867115288e-18 -1.743549669571138e-17
-1.7286005069879998e-20 8.1956334399957e-19 6.09886780084562e-18
-3.126149091673e-20 1.2481318908162199e-18 9.201573018412409e-18
1.1631428456286e-19 -4.020574930889e-18 -2.93952206524239e-17
9.509532558096999e-20 -2.6743342054793398e-18 -1.9410058245038338e-17
-1.5279749676605e-19 3.43949998931673e-18 2.4805625010542878e-17
-2.687636935008e-20 4.584016148055599e-19 3.2881186987347997e-18
-6.4105677162387e-19 8.04721308106535e-18 5.746140988427792e-17
-7.563198046754699e-19 6.8072737791669195e-18 4.842808077314067e-17
5.6297784011376e-19 -2.59540462006257e-18 -1.830676880811835e-17
-2.76234190783895e-18 1.04844617384718e-18 -4.6808333098759e-19
-2.2919609784761898e-18 6.810915452886e-20 -2.7967896772996498e-18
-3.6208807977999997e-20 -3.682274846435e-20 -2.0797895323726e-19
2.594174269028e-20 1.8409180453172e-19 8.8011663833611e-19
1.4486618004727e-19 2.1130363649060197e-18 1.0377466390999219e-17
1.0281633215088999e-19 2.7704693167424397e-18 1.418982941975605e-17
8.816208433696999e-20 5.08423655206157e-18 2.7257495978839857e-17
-5.62854656874e-21 -2.34146806005861e-18 -1.316599576874374e-17
6.509762455827e-20 -6.2026412936940594e-18 -3.6598444470345866e-17
6.036849620166e-20 -2.67132936143805e-18 -1.654200979869746e-17
-6.141833649706e-20 1.84190704536805e-18 1.1919229863601549e-17
-3.021597477179e-19 7.06674191460929e-18 4.7609478623536876e-17
-5.734462108869e-19 1.117058362955338e-17 7.800676243228547e-17
7.182525206483e-20 -1.22350069939524e-18 -8.81857272479016e-18
5.680263205605999e-20 -8.916477001473199e-19 -6.60982131518715e-18
5.604920744152999e-20 -8.050267878460199e-19 -6.1620092243931395e-18
3.5891836695123e-19 -4.9611733659665496e-18 -3.8855858236988196e-17
-9.3279098384704e-19 1.2595258808359459e-17 1.0073066020805325e-16
3.0718677451678e-19 -4.03718182157503e-18 -3.290797645216019e-17
-3.744445009842e-19 4.66988491001608e-18 3.87266453537467e-17
-4.022926987e-21 4.954103369154e-20 4.1758886895532e-19
-1.4494377120147e-19 1.7946044322017e-18 1.536026533356332e-17
-2.5961758248630997e-19 3.2370735514680296e-18 2.816235771646098e-17
8.777151336286999e-20 -1.1095132692876199e-18 -9.720686604278949e-18
-6.175111451416e-20 8.0029468703887e-19 7.0466959667252e-18
-9.027570782613999e-20 1.2090816492914999e-18 1.067379958073155e-17
2.9540946584889996e-20 -4.1576561653705997e-19 -3.67038154758544e-18
4.6288200919369996e-20 -6.9524926408976e-19 -6.1209235060572095e-18
1.7502056875994e-19 -2.8506073664096997e-18 -2.496088731556572e-17
3.0051474226469996e-20 -5.3929076693939e-19 -4.68497590246177e-18
5.878769117325e-20 -1.16321896905271e-18 -1.0003281286333149e-17
5.518391481146e-20 -1.2317396141986698e-18 -1.0467474032468949e-17
-1.796145542206e-20 4.5460537192029e-19 3.8146914867470695e-18
-9.755934484135999e-20 2.7480184951927e-18 2.271249938399458e-17
1.4516030660183e-19 -4.5159798274393096e-18 -3.676183405314296e-17
-2.686425958365e-20 9.1805511596118e-19 7.36226998403698e-18
-1.1922630198643998e-19 4.38287196733951e-18 3.464102000405906e-17
-9.080351761896e-20 3.5623922868070696e-18 2.776748956937624e-17
1.0527946159923e-19 -4.4139893063434495e-18 -3.399356269516235e-17
1.521555262656e-20 -6.7000440659541e-19 -5.0959177318651395e-18
4.957987954018e-20 -2.31875867115288e-18 -1.743549669571138e-17
-1.7286005069879998e-20 8.1956334399957e-19 6.09886780084562e-18
-3.126149091673e-20 1.2481318908162199e-18 9.201573018412409e-18
1.1631428456286e-19 -4.020574930889e-18 -2.93952206524239e-17
9.509532558096999e-20 -2.6743342054793398e-18 -1.9410058245038338e-17
-1.5279749676605e-19 3.43949998931673e-18 2.4805625010542878e-17
-2.687636935008e-20 4.584016148055599e-19 3.2881186987347997e-18
-6.4105677162387e-19 8.04721308106535e-18 5.746140988427792e-17
-7.563198046754699e-19 6.8072737791669195e-18 4.842808077314067e-17
5.6297784011376e-19 -2.59540462006257e-18 -1.830676880811835e-17

SCALARS Gamma float
LOOKUP_TABLE default
1.3253098141053274e-5
0.00040280576350012397
0.0029909717810107667
0.025347834196276346
0.056814520693228246
0.10150315824267121
0.1494084453490038
0.19386780993948838
0.23642312826643494
0.26815146738651346
0.28856288945246333
0.29237088164862396
0.28397590230330993
0.25981777567576325
0.2474522767902662
0.2365426347206508
0.2254709795485272
0.21960535585788957
0.21395195567685427
0.20503880595571208
0.20272267208042186
0.19837202527913403
0.19571851078543281
0.19213713231611612
0.18914725183675027
0.18790390965080994
0.18819460079858438
0.1886772630276499
0.19045155673175704
0.19327630155950118
0.1931321502336507
0.2002159114666928
0.19994489653629924
0.1989121306863518
0.19763702821599918
0.19579526297811428
0.1934467692441918
0.19066932097782835
0.18752359159975535
0.18153509633458137
0.17742648277922068
0.16830248751094395
0.15449631591165552
0.13900891972361742
0.13040723184126413
0.10717524874528533
0.08172180645216279
0.06093409341968164
0.04383367855102104
0.0224579318909867
1.3253098141053274e-5
0.00040280576350012397
0.0029909717810107667
0.025347834196276346
0.056814520693228246
0.10150315824267121
0.1494084453490038
0.19386780993948838
0.23642312826643494
0.26815146738651346
0.28856288945246333
0.29237088164862396
0.28397590230330993
0.25981777567576325
0.2474522767902662
0.2365426347206508
0.2254709795485272
0.21960535585788957
0.21395195567685427
0.20503880595571208
0.20272267208042186
0.19837202527913403
0.19571851078543281
0.19213713231611612
0.18914725183675027
0.18790390965080994
0.18819460079858438
0.1886772630276499
0.19045155673175704
0.19327630155950118
0.1931321502336507
0.2002159114666928
0.19994489653629924
0.1989121306863518
0.19763702821599918
0.19579526297811428
0.1934467692441918
0.19066932097782835
0.18752359159975535
0.18153509633458137
0.17742648277922068
0.16830248751094395
0.15449631591165552
0.13900891972361742
0.13040723184126413
0.10717524874528533
0.08172180645216279
0.06093409341968164
0.04383367855102104
0.0224579318909867

VECTORS Ftot float
0.004968202265510388 0.012134476593799893 -0.0021396356202622773
0.012061859652373294 0.049255922272214224 -0.008685148056270383
-0.00046356111496017514 0.11156706130281407 -0.01967228306604146
-0.2616710935199417 0.2348575551941062 -0.041411723603948486
-0.7599423352238576 0.3887232545544502 -0.06854239780675439
-1.6182390040683152 0.6198557673579945 -0.10929729593296403
-2.741467442356051 0.8693866842061355 -0.15329632909421181
-3.9996551041915547 1.12855902345674 -0.198995405157421
-5.398793174653587 1.4021381260951447 -0.2472347823105822
-6.696861316366782 1.6469387011785235 -0.2903997285907303
-7.804024862642849 1.8450992264000352 -0.3253407756986432
-8.50069002962261 1.934024946198008 -0.3410207793779467
-8.817411966324574 1.9566911212649267 -0.345017437591706
-8.569508770326555 1.8570045259274102 -0.3274400012187351
-8.635553425863083 1.7912589060309938 -0.3158472745675937
-8.698785942104275 1.731996888530278 -0.3053977819510002
-8.70428329839359 1.6528349554200414 -0.29143939729862667
-8.871348056144853 1.6017564858647295 -0.2824328849827293
-9.014402651169174 1.568558415311649 -0.276579169436758
-8.979458191019743 1.5575852612688406 -0.2746443063155407
-9.212571511244898 1.5383865610526135 -0.2712590574728864
-9.335562551462202 1.4807342464686268 -0.2610933989114374
-9.518736137218882 1.4295233611124034 -0.2520635381171672
-9.633871004401868 1.398794003000928 -0.24664512318226156
-9.760507956190159 1.3629221368426498 -0.24031994533019416
-9.96212240669862 1.3363170709825545 -0.2356287543955337
-10.235526166393068 1.306563551069321 -0.23038240606378405
-10.511674153320907 1.2669857415486827 -0.22340377040795517
-10.853665904306924 1.2250279754852766 -0.21600548420072263
-11.251884936357408 1.1790076655823811 -0.20789086190427722
-11.46986875911579 1.1226341616607205 -0.19795069216581396
-12.115793300950337 1.0889936857235216 -0.1920189686142119
-12.314497836446574 1.0144873529274905 -0.17888149190862762
-12.453282969829015 0.966682405200939 -0.17045218981307875
-12.564703400279083 0.9276611121079663 -0.1635716830186548
-12.62768749443178 0.8924572845760349 -0.15736429840056781
-12.644741810644957 0.8738237346270451 -0.15407870079818206
-12.620564795726164 0.8592153870682426 -0.15150285497999855
-12.558954663852756 0.8368391585864584 -0.14755732217216275
-12.291197045303662 0.8183013424647881 -0.14428860502649993
-12.135362446433435 0.7962915773283449 -0.14040768959388844
-11.61935176952269 0.7850952453163345 -0.1384334741752011
-10.757614571668555 0.8983457961105553 -0.15840260186031677
-9.75545897244652 0.9760051184838937 -0.1720960356982729
-9.217427189359304 1.1715509714571313 -0.20657604554310532
-7.624609475843869 1.2468108177531905 -0.21984638700907264
-5.84801937476159 1.2948622947367845 -0.22831915886417206
-4.383736742428682 1.3479690708715828 -0.23768331635518145
-3.1689875421683547 1.3838923817510138 -0.24401756529960308
-1.6332400923161918 1.4535531673345563 -0.2563006412953289
0.004968202265510388 0.012134476593799893 -0.0021396356202622773
0.012061859652373294 0.049255922272214224 -0.008685148056270383
-0.00046356111496017514 0.11156706130281407 -0.01967228306604146
-0.2616710935199417 0.2348575551941062 -0.041411723603948486
-0.7599423352238576 0.3887232545544502 -0.06854239780675439
-1.6182390040683152 0.6198557673579945 -0.10929729593296403
-2.741467442356051 0.8693866842061355 -0.15329632909421181
-3.9996551041915547 1.12855902345674 -0.198995405157421
-5.398793174653587 1.4021381260951447 -0.2472347823105822
-6.696861316366782 1.6469387011785235 -0.2903997285907303
-7.804024862642849 1.8450992264000352 -0.3253407756986432
-8.50069002962261 1.934024946198008 -0.3410207793779467
-8.817411966324574 1.9566911212649267 -0.345017437591706
-8.569508770326555 1.8570045259274102 -0.3274400012187351
-8.635553425863083 1.7912589060309938 -0.3158472745675937
-8.698785942104275 1.731996888530278 -0.3053977819510002
-8.70428329839359 1.6528349554200414 -0.29143939729862667
-8.871348056144853 1.6017564858647295 -0.2824328849827293
-9.014402651169174 1.568558415311649 -0.276579169436758
-8.979458191019743 1.5575852612688406 -0.2746443063155407
-9.212571511244898 1.5383865610526135 -0.2712590574728864
-9.335562551462202 1.4807342464686268 -0.2610933989114374
-9.518736137218882 1.4295233611124034 -0.2520635381171672
-9.633871004401868 1.398794003000928 -0.24664512318226156
-9.760507956190159 1.3629221368426498 -0.24031994533019416
-9.96212240669862 1.3363170709825545 -0.2356287543955337
-10.235526166393068 1.306563551069321 -0.23038240606378405
-10.511674153320907 1.2669857415486827 -0.22340377040795517
-10.853665904306924 1.2250279754852766 -0.21600548420072263
-11.251884936357408 1.1790076655823811 -0.20789086190427722
-11.46986875911579 1.1226341616607205 -0.19795069216581396
-12.115793300950337 1.0889936857235216 -0.1920189686142119
-12.314497836446574 1.0144873529274905 -0.17888149190862762
-12.453282969829015 0.966682405200939 -0.17045218981307875
-12.564703400279083 0.9276611121079663 -0.1635716830186548
-12.62768749443178 0.8924572845760349 -0.15736429840056781
-12.644741810644957 0.8738237346270451 -0.15407870079818206
-12.620564795726164 0.8592153870682426 -0.15150285497999855
-12.558954663852756 0.8368391585864584 -0.14755732217216275
-12.291197045303662 0.8183013424647881 -0.14428860502649993
-12.135362446433435 0.7962915773283449 -0.14040768959388844
-11.61935176952269 0.7850952453163345 -0.1384334741752011
-10.757614571668555 0.8983457961105553 -0.15840260186031677
-9.75545897244652 0.9760051184838937 -0.1720960356982729
-9.217427189359304 1.1715509714571313 -0.20657604554310532
-7.624609475843869 1.2468108177531905 -0.21984638700907264
-5.84801937476159 1.2948622947367845 -0.22831915886417206
-4.383736742428682 1.3479690708715828 -0.23768331635518145
-3.1689875421683547 1.3838923817510138 -0.24401756529960308
-1.6332400923161918 1.4535531673345563 -0.2563006412953289

VECTORS D float
0.005016240584350111 0.011946728004478786 -0.002843661014067122
0.014921942622568093 0.04781281023461692 -0.01106412126175146
0.028151996929469302 0.10296618108542434 -0.02313141768711314
0.04049464241044251 0.1597256605735421 -0.03460301209204094
0.04812663641547342 0.19828711479980168 -0.04104660908463759
0.05616069613110405 0.2395677513455139 -0.047180929478888654
0.057642600991217506 0.2540287685999084 -0.04756945551592158
0.05783940136323802 0.2628689829500493 -0.04677389315160575
0.05819419693407699 0.27303178812392953 -0.046169446925380726
0.06071862615479503 0.2949701362611883 -0.047412430722369454
0.0657369263366268 0.33282419828149634 -0.05109338354832439
0.0678614838905719 0.35964735680700793 -0.05295227158249234
0.0720126549800175 0.40093808876434606 -0.05688503058351087
0.07167523101852838 0.4202443106176656 -0.05772148535918385
0.06764945883378642 0.418237061503818 -0.05583773434832631
0.06392964337143643 0.4151510818796897 -0.05365531339430605
0.05898162932313168 0.404083576260723 -0.051049164169644154
0.05447501125369342 0.3927879843907813 -0.0486093559871443
0.0526446069542276 0.39852462191504145 -0.0483999565988185
0.05606553183266445 0.44458429689470885 -0.05306847650852314
0.053847656422940836 0.4464559635993648 -0.0524469553009043
0.048675239442634355 0.42143166150345895 -0.048778321113901756
0.04556590837175395 0.42336662606879244 -0.048243091381945886
0.04442346419383838 0.4367858946530325 -0.0494533617679312
0.04267374257620269 0.4456637501532662 -0.050240166733549564
0.041243803120400824 0.45989391199007945 -0.051745957183326856
0.03915162518722159 0.46919679025970484 -0.05283355809118504
0.036481943299492316 0.4735332420466117 -0.05351070867156627
0.03354538764437287 0.47570795293162804 -0.05409204588731933
0.030384731522670565 0.47519569589266786 -0.054505199306114444
0.02750442493083277 0.47910613616263686 -0.05555061466624936
0.024768019985905478 0.4855426638498659 -0.05700471147973195
0.021364334301214462 0.4806450303467221 -0.05717895641155425
0.01924438463755939 0.49856479191613545 -0.060239420441965126
0.017326809950349586 0.5230897665113641 -0.06419015071579885
0.015396735711632834 0.5489065223494436 -0.06839097455189709
0.013749463781716214 0.5878164893082807 -0.07432474895099818
0.011996393128676636 0.6264196551709239 -0.08032642733573993
0.010032857287146951 0.6514414685941959 -0.08455716889830486
0.008150718330247156 0.677616958002948 -0.08906782920059643
0.006271039807433881 0.6928111609755576 -0.09211959932178969
0.004618955792936279 0.7157619011418911 -0.09617069808149667
0.0036152362795625554 0.8587286384165497 -0.11646851895260833
0.0022002837721376393 0.9592173416947979 -0.13118966917981992
0.0007881507350198569 1.1715716104382812 -0.16141626382361618
-0.000866423677689839 1.2583498842127372 -0.1744856982573882
-0.002396128873056583 1.3118706260606225 -0.1829094591013977
-0.0037937218119281774 1.3666069316943152 -0.19142950356795785
-0.0050005067249875475 1.4017742186908362 -0.19711792648141246
-0.006712360780077708 1.4678031580154478 -0.20830120530820798
0.005016240584350111 0.011946728004478786 -0.002843661014067122
0.014921942622568093 0.04781281023461692 -0.01106412126175146
0.028151996929469302 0.10296618108542434 -0.02313141768711314
0.04049464241044251 0.1597256605735421 -0.03460301209204094
0.04812663641547342 0.19828711479980168 -0.04104660908463759
0.05616069613110405 0.2395677513455139 -0.047180929478888654
0.057642600991217506 0.2540287685999084 -0.04756945551592158
0.05783940136323802 0.2628689829500493 -0.04677389315160575
0.05819419693407699 0.27303178812392953 -0.046169446925380726
0.06071862615479503 0.2949701362611883 -0.047412430722369454
0.0657369263366268 0.33282419828149634 -0.05109338354832439
0.0678614838905719 0.35964735680700793 -0.05295227158249234
0.0720126549800175 0.40093808876434606 -0.05688503058351087
0.07167523101852838 0.4202443106176656 -0.05772148535918385
0.06764945883378642 0.418237061503818 -0.05583773434832631
0.06392964337143643 0.4151510818796897 -0.05365531339430605
0.05898162932313168 0.404083576260723 -0.051049164169644154
0.05447501125369342 0.3927879843907813 -0.0486093559871443
0.0526446069542276 0.39852462191504145 -0.0483999565988185
0.05606553183266445 0.44458429689470885 -0.05306847650852314
0.053847656422940836 0.4464559635993648 -0.0524469553009043