# vtk DataFile Version 4.0
[MyVLM domain - lattices] 
ASCII
DATASET UNSTRUCTURED_GRID
POINTS 152 float
0.0018916144324157278 0.010116922625893903 -0.00034336455860309426
0.0010688609733395774 0.013549666758509313 0.0021763350415912575
0.00045780959861706216 0.016933066902748144 0.0046382533980654965
-0.00013255382275044122 0.020162140865503598 0.007130481030335719
-0.0007201482309470062 0.023280966406890875 0.009616032306146138
-0.0011946371146526612 0.026174956592066773 0.012191057080261417
-0.0014108622120167862 0.028611370358786206 0.015050848292171225
-0.0013224843579428829 0.030784235155682616 0.018032597581288966
-0.0010167791708201568 0.032976760410636095 0.020898664021134526
-0.0006138083932142036 0.03499951934055073 0.02380799555553879
-0.00020084691410191335 0.03693997967271606 0.02668719804679319
0.0001698744379422134 0.03890802771119368 0.02944406593768819
0.0004739400232210948 0.04084723266058575 0.03212595028782918
0.0007082255455298663 0.042694928181641306 0.03478543439936886
0.0008836440760600275 0.04446012016259937 0.03741496143480745
0.001017516815515788 0.04618818975195178 0.03997645208918305
0.0011275777072549662 0.047920701715020025 0.04243502938324442
0.0012277625198140337 0.0496680427749806 0.04478197782140502
0.00132638558954348 0.05140430125757019 0.04703903987998242
0.0014271324949937316 0.05309130947457356 0.04923824205208086
0.0015306083418583354 0.05470387186705024 0.05140072592191463
0.0016355657532635378 0.056241416534989666 0.053526971370571656
0.0017398364473795213 0.05771937067680745 0.055604033441551286
0.0018410131526058282 0.059155579240483994 0.0576169384455848
0.001936923789896676 0.06056315746906366 0.05955468138707087
0.0020259353317291845 0.06194943089465532 0.061411115414718755
0.0021071205190511294 0.06331633685664911 0.06318461490776074
0.002180316672546981 0.06466107836243244 0.06487752682166646
0.0022461021518325993 0.06597693694490599 0.06649548861970102
0.0023056987632523672 0.06725428195759246 0.06804658137377151
0.0023607022647827588 0.06848259404074936 0.06953963187475809
0.0024126938092907785 0.06965318206838798 0.07098193284327241
0.0024629658139780817 0.07076091155363534 0.07237779262535585
0.0025123806343549317 0.07180486007904302 0.07372798522114918
0.0025613283706516186 0.07278819506487354 0.07502985284947836
0.0026097549007438213 0.07371752514013842 0.07627785021217719
0.0026572361369983943 0.07460192466528459 0.0774643630167415
0.002703078927872171 0.07545114667800346 0.07858120749284159
0.0027464329900004744 0.07627132247219469 0.0796232388740276
0.0027864017842759935 0.07706139720464206 0.0805913422788532
0.0028221433614242725 0.07781277879683715 0.08149272731722587
0.0028529549202113143 0.07851116335018171 0.0823393963851838
0.002878337166053322 0.07913897646162238 0.0831460961578472
0.0028980365508205295 0.07967459375749898 0.08393097163917879
0.0029120651374179955 0.08009134535165259 0.08471640152081804
0.002920699186668212 0.08036206200215548 0.0855251835036459
0.0029244586304951574 0.08046631399158725 0.08637446015601487
0.002924070395798875 0.08039708299545123 0.0872701205514216
0.0029204190990956736 0.08016496974727025 0.08820326961827685
0.0029144889643634465 0.0797991215881658 0.0891494498333958
0.002907300946956263 0.0793448738702422 0.09007062031954839
0.006212993241944028 -0.0010637406206212765 0.009038325847865174
0.0072288922610571306 -0.0007429083162987742 0.014169229515436322
0.007974780507892725 0.000685204564650294 0.01827182869338264
0.008270023946844132 0.002789409511934056 0.021707933501657905
0.008140225139500825 0.005369443021706706 0.024645584972477416
0.007751519283975376 0.008130754402286793 0.027331940482594085
0.007318662739924205 0.01071407298880304 0.030068463914394217
0.0069707766105224795 0.013229115227863674 0.03276309223799478
0.006702226685381192 0.015902374826193492 0.035225774667618996
0.006460614097576536 0.01850310408659023 0.037650131510884324
0.006208498480286784 0.021086344140989373 0.039989977774284084
0.005928720355726676 0.02373626532372886 0.042174686161319266
0.00562110152420414 0.026376273581795735 0.044268526713623406
0.005297776270156929 0.02892785002088644 0.04633738460644707
0.004977662142563614 0.03138752791915746 0.048384168764810546
0.004680078492205027 0.033790812719966735 0.05037908658428739
0.0044193472589770496 0.0361712785674683 0.05229396601290087
0.0042022226504668725 0.038532814886055214 0.054125543436077284
0.004028605706719037 0.04084443422728132 0.05589982041037892
0.003894567528214928 0.04306441944065867 0.05765180178139401
0.003794542923454683 0.045165493791325964 0.05940437544728433
0.0037223892098821663 0.04714628867534632 0.061158689803108596
0.0036720478837599236 0.04902252945112055 0.06290154970643252
0.0036379885391020494 0.050813276103293205 0.06461696193117067
0.003615480687410345 0.05253360816306636 0.066292273248253
0.003600729157216099 0.054193407026908585 0.06791919218154724
0.0035909263662617956 0.0557976127565474 0.06949357352707983
0.003584242976167935 0.057346745844650805 0.07101498053964503
0.00357976601221264 0.05883759957545403 0.07248610397325833
0.003577378730160166 0.06026413991584885 0.07391200698287538
0.0035774796054096774 0.06161943118640488 0.07529850929454816
0.003580588564800478 0.06289826713821532 0.0766499794698142
0.0035870678637920984 0.06409882538449972 0.07796794667274881
0.0035969747054953923 0.06522326101067406 0.07925060257197432
0.0036100119296844893 0.06627753479373477 0.08049294548171146
0.0036255480079795204 0.06727072717092929 0.081687356010415
0.0036426825552804717 0.06821403716103466 0.08282443706555959
0.0036603380175139954 0.06911898096841494 0.08389452540431074
0.003677362157174432 0.06999308776890588 0.08489130329800164
0.0036926294639041822 0.07083634121773859 0.08581478446152184
0.0037051326977571345 0.07164084297523937 0.08667159638877842
0.003714058455611533 0.07239266040474629 0.08747342995005576
0.003718842962038476 0.07307429669812826 0.08823496671060344
0.003719206248598144 0.07366394557010061 0.08897450431636116
0.003715164522496519 0.07413453402746256 0.08971475970593855
0.0037070218583473346 0.07445830978451314 0.09047901981203164
0.003695343396461056 0.07461412316196893 0.09128503132272667
0.003680913018392471 0.07459414257911753 0.09213936571451094
0.0036646790161518838 0.07440810534141852 0.09303385241796465
0.003647691596346039 0.07408428676793792 0.09394476562328809
0.0036310361855396924 0.07366718066040318 0.09483477059786206
0.005410766489344848 0.002280830321705383 0.008931954571611583
0.005892211109850776 0.003788702800789002 0.013017220383264206
0.006132458642509649 0.0059398812497506 0.016463502626690357
0.006047255650667177 0.008489958109164595 0.01947588359486098
0.005720055990603616 0.01124456440886727 0.022217458218952758
0.005325630843128663 0.013915101140515309 0.024930389820424698
0.005016871435172548 0.01640314627055862 0.0276972642913284
0.004834968294868498 0.018894433216061275 0.030362232789908097
0.004732241848104854 0.02139908956119225 0.03291679726402291
0.00464908530328423 0.023838480462000704 0.03542694018222965
0.004547585503985086 0.026289479472258053 0.037828156973911425
0.004411660012619469 0.028761609636044152 0.04011245685629318
0.004242349868979272 0.031181816456284192 0.04234113983092618
0.00405227310746894 0.03351264777054655 0.04454563199349365
0.003859297849485217 0.03577291647899047 0.04671014744641054
0.0036804214720396232 0.03799939566615962 0.048803829907999044
0.003527506244425096 0.040212628106321396 0.05080944194394799
0.003405829147614405 0.04240051142157005 0.052737138655094516
0.003315379723667389 0.04452777146699547 0.05461651856342277
0.003253134023982613 0.04656061512969722 0.056475937457503816
0.003214621311891553 0.0484850794752571 0.058327111630458145
0.0031948391851961662 0.050308405198899724 0.06016396541759329
0.0031888698585714084 0.05204779582256659 0.06197206334999322
0.0031922930777549615 0.0537199236885783 0.06373741567136583
0.003201436081938149 0.055336704241705476 0.06545002413639879
0.0032135028026517493 0.05690485338770906 0.06710425343104509
0.003226618152360912 0.05842631137783453 0.06869847549120023
0.0032398057236901635 0.05989888144595663 0.0702345336225097
0.003252904392775423 0.06131705467205089 0.07171705035773422
0.003266372004343082 0.06267344866313788 0.07315222026010003
0.0032809500730880004 0.06396110888537475 0.0745458788763897
0.0032973286136308236 0.06517567139877106 0.07590168798703967
0.0033159342695244357 0.06631650385227497 0.07722017819758431
0.0033368336138182735 0.0673869303196429 0.07849856027896061
0.0033597203855484335 0.06839381326237552 0.07973107594225437
0.0033839603409402744 0.06934671785016436 0.08090969905710531
0.003408672097906746 0.07025651571645461 0.08202530723989926
0.0034328265552422406 0.07113233442027009 0.0830702415592258
0.0034553512046890385 0.07197762582959627 0.0840416055539314
0.003475228953835527 0.07278821607255163 0.08494290151837249
0.0034915839677176984 0.07355305653587198 0.08578340033986404
0.0035037495424018335 0.07425637639005347 0.08657633531562607
0.0035113151685979642 0.074878537127976 0.08733818510973997
0.003514151750190315 0.07539517223773014 0.08808939565336199
0.003512415433327221 0.0757789923487169 0.08885286544729681
0.0035065316976985676 0.07600570935414862 0.08964897463299197
0.0034971622838568268 0.07606102427628723 0.09048972147739366
0.003485158199815951 0.07594609956304121 0.09137413057089065
0.0034715024876191118 0.07568015845793818 0.09228607169692886
0.003457246657122113 0.07529979971792891 0.09319483485204932

CELLS 100 350
4 0 51 52 1
4 1 52 53 2
4 2 53 54 3
4 3 54 55 4
4 4 55 56 5
4 5 56 57 6
4 6 57 58 7
4 7 58 59 8
4 8 59 60 9
4 9 60 61 10
4 10 61 62 11
4 11 62 63 12
4 12 63 64 13
4 13 64 65 14
4 14 65 66 15
4 15 66 67 16
4 16 67 68 17
4 17 68 69 18
4 18 69 70 19
4 19 70 71 20
4 20 71 72 21
4 21 72 73 22
4 22 73 74 23
4 23 74 75 24
4 24 75 76 25
4 25 76 77 26
4 26 77 78 27
4 27 78 79 28
4 28 79 80 29
4 29 80 81 30
4 30 81 82 31
4 31 82 83 32
4 32 83 84 33
4 33 84 85 34
4 34 85 86 35
4 35 86 87 36
4 36 87 88 37
4 37 88 89 38
4 38 89 90 39
4 39 90 91 40
4 40 91 92 41
4 41 92 93 42
4 42 93 94 43
4 43 94 95 44
4 44 95 96 45
4 45 96 97 46
4 46 97 98 47
4 47 98 99 48
4 48 99 100 49
4 49 100 101 50
1 102
1 103
1 104
1 105
1 106
1 107
1 108
1 109
1 110
1 111
1 112
1 113
1 114
1 115
1 116
1 117
1 118
1 119
1 120
1 121
1 122
1 123
1 124
1 125
1 126
1 127
1 128
1 129
1 130
1 131
1 132
1 133
1 134
1 135
1 136
1 137
1 138
1 139
1 140
1 141
1 142
1 143
1 144
1 145
1 146
1 147
1 148
1 149
1 150
1 151

CELL_TYPES 100
9
9
9
9
9
9
9
9
9
9
9
9
9
9
9
9
9
9
9
9
9
9
9
9
9
9
9
9
9
9
9
9
9
9
9
9
9
9
9
9
9
9
9
9
9
9
9
9
9
9
1
1
1
1
1
1
1
1
1
1
1
1
1
1
1
1
1
1
1
1
1
1
1
1
1
1
1
1
1
1
1
1
1
1
1
1
1
1
1
1
1
1
1
1
1
1
1
1
1
1

CELL_DATA 100

VECTORS S float
8.15229314624645e-18 1.33054328413251e-18 -3.74229977617025e-18
-4.84963017954235e-18 1.84769737974608e-18 4.78521648334265e-18
-1.7309601347192498e-18 5.74092667102347e-18 8.18421536320227e-18
-3.6171710790078e-19 7.46129897392738e-18 9.963326623539539e-18
-7.44114631344e-21 3.2198678852375e-19 4.3488359319647e-19
-2.0290623689125e-19 1.648730420806686e-17 2.2637061349168957e-17
-1.892014522535e-20 3.53127242801717e-18 4.94074913818855e-18
3.814250193725e-20 -6.873741040177178e-17 -9.793532367025844e-17
3.0125191957e-20 9.056243475787e-18 1.313245837315055e-17
-1.429747469266e-19 -2.166490883134214e-17 -3.19371765219958e-17
1.4933430545868e-19 1.5806934239785428e-17 2.365556770539057e-17
6.045853805792699e-19 5.121690018269866e-17 7.768920235343028e-17
5.1508783444266e-19 3.7888876848526577e-17 5.807745456641685e-17
2.7327756787917997e-19 1.7911502887959758e-17 2.773735257618412e-17
-1.4560018478786199e-18 -8.93531909370047e-17 -1.3961194150694288e-16
-7.169280738949e-19 -4.1636930150370596e-17 -6.566022651097879e-17
-1.02235145221164e-18 -5.82761652011735e-17 -9.248571794965951e-17
-1.11943317835974e-18 -6.348243569800339e-17 -1.0132303790113685e-16
-1.4382833328670098e-18 -8.077505770924423e-17 -1.2958199414969315e-16
2.6087352671813e-19 1.412338534540748e-17 2.276021031267112e-17
1.21793425495746e-18 6.61749974819524e-17 1.0709423675509251e-16
1.29550625457147e-18 7.237293376952248e-17 1.1758346855222416e-16
1.2360461274400899e-18 6.991125286386311e-17 1.1390720100869874e-16
-7.2510806859521e-19 -4.1589768501393746e-17 -6.791565299821695e-17
-4.1870123805224e-19 -2.46400432539371e-17 -4.030207836338038e-17
-6.2045726541027e-19 -3.776051971724176e-17 -6.181825770315475e-17
4.423437832173999e-19 2.829195390694161e-17 4.6324415045843394e-17
-1.2255785302672e-19 -8.36158601614846e-18 -1.368263297842694e-17
1.8970510588762998e-19 1.40265050863334e-17 2.2921206605655998e-17
-6.911090706002099e-19 -5.634937767414885e-17 -9.181665920325388e-17
-6.185380075217e-20 -5.52073545177717e-18 -8.97251722060741e-18
4.4158257872318e-19 4.455768905025274e-17 7.216348813460192e-17
-4.6661476652308995e-19 -5.288594533379406e-17 -8.533362985303856e-17
-1.0024648774696e-19 -1.251223088983352e-17 -2.01088820249923e-17
-1.0416810421657e-19 -1.421382051220359e-17 -2.274986256581706e-17
1.2299388324579998e-19 1.825376645488644e-17 2.90951889943457e-17
-3.5513723985281998e-19 -5.615697820404681e-17 -8.914463999146964e-17
-1.778968316946e-20 -2.97582868932371e-18 -4.7051801058910896e-18
-3.5830359334969997e-20 -6.39025349766932e-18 -1.006565026609719e-17
-3.581780783238e-20 -6.6607755046327895e-18 -1.045440550675683e-17
-9.580892199305e-20 -1.8826439725920508e-17 -2.945120460406748e-17
5.11305260843e-20 1.0137415798751269e-17 1.5810255086446418e-17
-8.308379245899999e-20 -1.39194379195762e-17 -2.164862261596048e-17
-3.6878097018937e-19 -5.510660757113462e-17 -8.549365771566651e-17
5.9171854782885e-19 6.675965097254788e-17 1.033447504038207e-16
6.423373872413299e-19 5.330530076492917e-17 8.235876129361599e-17
-7.673505146429599e-19 -4.917348591416276e-17 -7.584908114432238e-17
-9.8392415493558e-19 -4.694276838809279e-17 -7.230650897936324e-17
1.82807430519751e-18 6.275242983037623e-17 9.654573093880967e-17
-3.50952958223447e-18 -6.074841686509599e-17 -9.338495091938287e-17
8.15229314624645e-18 1.33054328413251e-18 -3.74229977617025e-18
-4.84963017954235e-18 1.84769737974608e-18 4.78521648334265e-18
-1.7309601347192498e-18 5.74092667102347e-18 8.18421536320227e-18
-3.6171710790078e-19 7.46129897392738e-18 9.963326623539539e-18
-7.44114631344e-21 3.2198678852375e-19 4.3488359319647e-19
-2.0290623689125e-19 1.648730420806686e-17 2.2637061349168957e-17
-1.892014522535e-20 3.53127242801717e-18 4.94074913818855e-18
3.814250193725e-20 -6.873741040177178e-17 -9.793532367025844e-17
3.0125191957e-20 9.056243475787e-18 1.313245837315055e-17
-1.429747469266e-19 -2.166490883134214e-17 -3.19371765219958e-17
1.4933430545868e-19 1.5806934239785428e-17 2.365556770539057e-17
6.045853805792699e-19 5.121690018269866e-17 7.768920235343028e-17
5.1508783444266e-19 3.7888876848526577e-17 5.807745456641685e-17
2.7327756787917997e-19 1.7911502887959758e-17 2.773735257618412e-17
-1.4560018478786199e-18 -8.93531909370047e-17 -1.3961194150694288e-16
-7.169280738949e-19 -4.1636930150370596e-17 -6.566022651097879e-17
-1.02235145221164e-18 -5.82761652011735e-17 -9.248571794965951e-17
-1.11943317835974e-18 -6.348243569800339e-17 -1.0132303790113685e-16
-1.4382833328670098e-18 -8.077505770924423e-17 -1.2958199414969315e-16
2.6087352671813e-19 1.412338534540748e-17 2.276021031267112e-17
1.21793425495746e-18 6.61749974819524e-17 1.0709423675509251e-16
1.29550625457147e-18 7.237293376952248e-17 1.1758346855222416e-16
1.2360461274400899e-18 6.991125286386311e-17 1.1390720100869874e-16
-7.2510806859521e-19 -4.1589768501393746e-17 -6.791565299821695e-17
-4.1870123805224e-19 -2.46400432539371e-17 -4.030207836338038e-17
-6.2045726541027e-19 -3.776051971724176e-17 -6.181825770315475e-17
4.423437832173999e-19 2.829195390694161e-17 4.6324415045843394e-17
-1.2255785302672e-19 -8.36158601614846e-18 -1.368263297842694e-17
1.8970510588762998e-19 1.40265050863334e-17 2.2921206605655998e-17
-6.911090706002099e-19 -5.634937767414885e-17 -9.181665920325388e-17
-6.185380075217e-20 -5.52073545177717e-18 -8.97251722060741e-18
4.4158257872318e-19 4.455768905025274e-17 7.216348813460192e-17
-4.6661476652308995e-19 -5.288594533379406e-17 -8.533362985303856e-17
-1.0024648774696e-19 -1.251223088983352e-17 -2.01088820249923e-17
-1.0416810421657e-19 -1.421382051220359e-17 -2.274986256581706e-17
1.2299388324579998e-19 1.825376645488644e-17 2.90951889943457e-17
-3.5513723985281998e-19 -5.615697820404681e-17 -8.914463999146964e-17
-1.778968316946e-20 -2.97582868932371e-18 -4.7051801058910896e-18
-3.5830359334969997e-20 -6.39025349766932e-18 -1.006565026609719e-17
-3.581780783238e-20 -6.6607755046327895e-18 -1.045440550675683e-17
-9.580892199305e-20 -1.8826439725920508e-17 -2.945120460406748e-17
5.11305260843e-20 1.0137415798751269e-17 1.5810255086446418e-17
-8.308379245899999e-20 -1.39194379195762e-17 -2.164862261596048e-17
-3.6878097018937e-19 -5.510660757113462e-17 -8.549365771566651e-17
5.9171854782885e-19 6.675965097254788e-17 1.033447504038207e-16
6.423373872413299e-19 5.330530076492917e-17 8.235876129361599e-17
-7.673505146429599e-19 -4.917348591416276e-17 -7.584908114432238e-17
-9.8392415493558e-19 -4.694276838809279e-17 -7.230650897936324e-17
1.82807430519751e-18 6.275242983037623e-17 9.654573093880967e-17
-3.50952958223447e-18 -6.074841686509599e-17 -9.338495091938287e-17

SCALARS Gamma float
LOOKUP_TABLE default
3.109492398163504e-5
0.0003413182546687934
0.0030016439730146164
0.02538103870798103
0.05674772315020701
0.10198591778891468
0.1491436891678107
0.19335632470757208
0.235761324179212
0.2674068495417338
0.28714879800273313
0.2907840032165132
0.2823434437080217
0.2582497495532003
0.24564635368238838
0.23722225449263803
0.22589201219159855
0.21996016712653868
0.21451654306530435
0.20586403580502727
0.20402150014554546
0.20200285814228852
0.19446877686023012
0.19059188314921297
0.18762638278656577
0.18658318012507658
0.18717819286708132
0.18809384224453687
0.1905503609463455
0.19339034702486269
0.19342172773115096
0.20152462850701822
0.20074524299603863
0.19989823044882693
0.1987923033161799
0.19711946491231766
0.194944523674475
0.19236308274408276
0.1896175466950084
0.1840059423762732
0.18046782452969973
0.1721482682446585
0.1598316610015993
0.14919636747205337
0.1306666475210461
0.09935803982666894
0.07757996353986338
0.05871779999364849
0.0425032628925309
0.022072442457265556
3.109492398163504e-5
0.0003413182546687934
0.0030016439730146164
0.02538103870798103
0.05674772315020701
0.10198591778891468
0.1491436891678107
0.19335632470757208
0.235761324179212
0.2674068495417338
0.28714879800273313
0.2907840032165132
0.2823434437080217
0.2582497495532003
0.24564635368238838
0.23722225449263803
0.22589201219159855
0.21996016712653868
0.21451654306530435
0.20586403580502727
0.20402150014554546
0.20200285814228852
0.19446877686023012
0.19059188314921297
0.18762638278656577
0.18658318012507658
0.18717819286708132
0.18809384224453687
0.1905503609463455
0.19339034702486269
0.19342172773115096
0.20152462850701822
0.20074524299603863
0.19989823044882693
0.1987923033161799
0.19711946491231766
0.194944523674475
0.19236308274408276
0.1896175466950084
0.1840059423762732
0.18046782452969973
0.1721482682446585
0.1598316610015993
0.14919636747205337
0.1306666475210461
0.09935803982666894
0.07757996353986338
0.05871779999364849
0.0425032628925309
0.022072442457265556

VECTORS Ftot float
0.004311780951839978 -0.008896868358109393 0.006229654290807649
0.012635290677809986 -0.04077088269450239 0.028548079402154414
-0.0005526751521096728 -0.09308390987729195 0.06517805538211317
-0.2618802766821777 -0.1953517734201159 0.13678678435140054
-0.7583484426275551 -0.32286164332816014 0.2260701564571527
-1.6244812378790188 -0.517726437615543 0.36251595434886275
-2.734247869086624 -0.7212836684458552 0.5050482618333415
-3.985560947910826 -0.9363184312411865 0.6556172237197695
-5.378828915880313 -1.164043894326365 0.8150723096143085
-6.670621667545499 -1.3668794329286909 0.9570992827604841
-7.757656453661418 -1.5306198911392694 1.0717515859094433
-8.446287723295802 -1.6049779501234942 1.1238176593368396
-8.756708894887897 -1.623994717323259 1.1371333430824941
-8.507788232241317 -1.539318686195918 1.07784254778145
-8.562548502364653 -1.4834453132774796 1.038719590878757
-8.717275237730863 -1.440393548681653 1.0085744207755294
-8.716297231675231 -1.3745296286026905 0.962456007440198
-8.88300790022395 -1.3321242841851464 0.9327634656186544
-9.036639871347514 -1.3050453369548343 0.913802582641207
-9.014654138437315 -1.296776089140744 0.9080123929864568
-9.270909164894952 -1.2811878807275907 0.8970974119483828
-9.505611083981902 -1.236416226707331 0.8657479623052798
-9.452713164715613 -1.1865016503463444 0.8307973996707727
-9.550501767475108 -1.1609080557027274 0.8128765717714286
-9.675772150232334 -1.1317071180675002 0.7924298551164507
-9.885695442696527 -1.1101450292582644 0.7773319179926765
-10.173876300292088 -1.0857953218689815 0.7602820693255
-10.47308239488027 -1.0528766528376146 0.7372321691219063
-10.853709763604392 -1.017748829596847 0.7126354024878226
-11.251635266326998 -0.9791934286263786 0.6856386200896025
-11.480563648487252 -0.9320474979305418 0.652626684020465
-12.18785596570831 -0.9012372419193316 0.6310531105072448
-12.35612306756715 -0.8398095957344731 0.5880410095941279
-12.507430846125573 -0.7995524065042479 0.5598526222279893
-12.630641337488388 -0.7668179980616999 0.5369317426776816
-12.7056900597421 -0.7375143040348645 0.5164130752227005
-12.735395258833147 -0.7221744705067946 0.505672008151464
-12.72561435998916 -0.7101731198487217 0.4972685719519832
-12.69216377562734 -0.6913518112024157 0.48408974975886826
-12.451772392594645 -0.6762851293882106 0.47353994557675466
-12.336863198148654 -0.6582964062726215 0.4609441060484519
-11.878731091411943 -0.6509508382837953 0.4558006839702438
-11.123697871012089 -0.7458686517767265 0.5222628524883776
-10.465591813227068 -0.8113848515322298 0.5681377894320342
-9.231801825005192 -0.9749257793270432 0.6826503798797725
-7.065960137745987 -1.0402953646044562 0.7284226562606596
-5.5501234359331955 -1.0818667339065997 0.7575312424197203
-4.223637944099888 -1.127195905394574 0.7892710699964005
-3.0728657758903495 -1.1583234171754866 0.8110667883911071
-1.605814270812142 -1.21446784504516 0.8503795400139239
0.004311780951839978 -0.008896868358109393 0.006229654290807649
0.012635290677809986 -0.04077088269450239 0.028548079402154414
-0.0005526751521096728 -0.09308390987729195 0.06517805538211317
-0.2618802766821777 -0.1953517734201159 0.13678678435140054
-0.7583484426275551 -0.32286164332816014 0.2260701564571527
-1.6244812378790188 -0.517726437615543 0.36251595434886275
-2.734247869086624 -0.7212836684458552 0.5050482618333415
-3.985560947910826 -0.9363184312411865 0.6556172237197695
-5.378828915880313 -1.164043894326365 0.8150723096143085
-6.670621667545499 -1.3668794329286909 0.9570992827604841
-7.757656453661418 -1.5306198911392694 1.0717515859094433
-8.446287723295802 -1.6049779501234942 1.1238176593368396
-8.756708894887897 -1.623994717323259 1.1371333430824941
-8.507788232241317 -1.539318686195918 1.07784254778145
-8.562548502364653 -1.4834453132774796 1.038719590878757
-8.717275237730863 -1.440393548681653 1.0085744207755294
-8.716297231675231 -1.3745296286026905 0.962456007440198
-8.88300790022395 -1.3321242841851464 0.9327634656186544
-9.036639871347514 -1.3050453369548343 0.913802582641207
-9.014654138437315 -1.296776089140744 0.9080123929864568
-9.270909164894952 -1.2811878807275907 0.8970974119483828
-9.505611083981902 -1.236416226707331 0.8657479623052798
-9.452713164715613 -1.1865016503463444 0.8307973996707727
-9.550501767475108 -1.1609080557027274 0.8128765717714286
-9.675772150232334 -1.1317071180675002 0.7924298551164507
-9.885695442696527 -1.1101450292582644 0.7773319179926765
-10.173876300292088 -1.0857953218689815 0.7602820693255
-10.47308239488027 -1.0528766528376146 0.7372321691219063
-10.853709763604392 -1.017748829596847 0.7126354024878226
-11.251635266326998 -0.9791934286263786 0.6856386200896025
-11.480563648487252 -0.9320474979305418 0.652626684020465
-12.18785596570831 -0.9012372419193316 0.6310531105072448
-12.35612306756715 -0.8398095957344731 0.5880410095941279
-12.507430846125573 -0.7995524065042479 0.5598526222279893
-12.630641337488388 -0.7668179980616999 0.5369317426776816
-12.7056900597421 -0.7375143040348645 0.5164130752227005
-12.735395258833147 -0.7221744705067946 0.505672008151464
-12.72561435998916 -0.7101731198487217 0.4972685719519832
-12.69216377562734 -0.6913518112024157 0.48408974975886826
-12.451772392594645 -0.6762851293882106 0.47353994557675466
-12.336863198148654 -0.6582964062726215 0.4609441060484519
-11.878731091411943 -0.6509508382837953 0.4558006839702438
-11.123697871012089 -0.7458686517767265 0.5222628524883776
-10.465591813227068 -0.8113848515322298 0.5681377894320342
-9.231801825005192 -0.9749257793270432 0.6826503798797725
-7.065960137745987 -1.0402953646044562 0.7284226562606596
-5.5501234359331955 -1.0818667339065997 0.7575312424197203
-4.223637944099888 -1.127195905394574 0.7892710699964005
-3.0728657758903495 -1.1583234171754866 0.8110667883911071
-1.605814270812142 -1.21446784504516 0.8503795400139239

VECTORS D float
0.004447582175594808 -0.008474141662509323 0.006675783048892109
0.015053959381365813 -0.03857402761660189 0.030151042485363162
0.02814291433466573 -0.08379251899644422 0.06472959794153943
0.04043875519628319 -0.1301997451405335 0.09897162380179632
0.04807940968877835 -0.16231774471010874 0.1210023465704982
0.05662661608172766 -0.20015771817018388 0.14628891230897048
0.05742227433491539 -0.20913832143604189 0.14969608964393602
0.057666720089349435 -0.21753862138113225 0.15270528026686808
0.05816398414193141 -0.22748128080192587 0.1567394013711263
0.06074147296361238 -0.24710797487967964 0.16735628607806907
0.06590569387619556 -0.28015047911026486 0.18678385885926949
0.06819963824636995 -0.30434553501794337 0.20011020724726283
0.07234712486874777 -0.3397248630862393 0.22098985693842402
0.07181886206435786 -0.3563416755198523 0.2294014343562425
0.06771920332566575 -0.3548871352659483 0.22642546426985835
0.06373318575971981 -0.35348034322358385 0.22345558384216366
0.05883762398306 -0.34450438049796756 0.21642521573978238
0.05435329791354048 -0.3353286224982477 0.20949463488371386
0.052490800946867436 -0.34055211703508387 0.21170086509622088
0.05594139161809949 -0.3810146831217499 0.2357897176757697
0.053621121274411515 -0.3829294037293865 0.2360075209739658
0.04817321945588914 -0.3628661208798646 0.22281428970517003
0.04567299441919052 -0.36245649651311174 0.22196431505736705
0.04457874412757026 -0.3738170049488234 0.22843980151465973
0.04284984400344799 -0.3814231654510443 0.2327508255890841
0.04140388933920258 -0.3936524910784878 0.24003965589597256
0.03927678567836317 -0.4019374091890053 0.24510230298741942
0.03652993110715221 -0.4060161011464109 0.24779306213174734
0.03346655988828251 -0.4081464672540741 0.24948598125763086
0.030296138640788103 -0.4073204594915842 0.24975115266737632
0.027382387383354564 -0.41052050170084486 0.2524020101612649
0.024401376099527753 -0.41627814356851967 0.25688360327570525
0.021099658901673465 -0.4113025356233149 0.25479143497889295
0.01893909172054834 -0.42686739841730814 0.265512765169045
0.016979110710071722 -0.4482085846848055 0.2799571942265021
0.015006093438180504 -0.47070129283300416 0.2952455752513538
0.013303444520717647 -0.5042998418991482 0.31763245310067567
0.011491921933281206 -0.5373480469744633 0.3398066090364189
0.009442517793251158 -0.558841755587635 0.35475126396046713
0.007499828320641851 -0.581288810981662 0.3703286278107312
0.005578537719274077 -0.5942638911442538 0.3798601450987178
0.003892900745116776 -0.6151194788605285 0.3943973606347929
0.0027203700554225374 -0.7362051709166723 0.4733481818113287
0.0011907005525620509 -0.8212229251839012 0.5293301464458309
-0.000449018335046096 -1.0019358106754803 0.6472428492855129
-0.002198104764580208 -1.0755995737412842 0.6961805860747515
-0.0037896808419612092 -1.120685014310063 0.7265862149875082
-0.005254879684340755 -1.1667793058570302 0.7575669450941501
-0.0065150613503654 -1.1965926604261947 0.7778801428598447
-0.00778027403693784 -1.2489201084562427 0.8127350684920488
0.004447582175594808 -0.008474141662509323 0.006675783048892109
0.015053959381365813 -0.03857402761660189 0.030151042485363162
0.02814291433466573 -0.08379251899644422 0.06472959794153943
0.04043875519628319 -0.1301997451405335 0.09897162380179632
0.04807940968877835 -0.16231774471010874 0.1210023465704982
0.05662661608172766 -0.20015771817018388 0.14628891230897048
0.05742227433491539 -0.20913832143604189 0.14969608964393602
0.057666720089349435 -0.21753862138113225 0.15270528026686808
0.05816398414193141 -0.22748128080192587 0.1567394013711263
0.06074147296361238 -0.24710797487967964 0.16735628607806907
0.06590569387619556 -0.28015047911026486 0.18678385885926949
0.06819963824636995 -0.30434553501794337 0.20011020724726283
0.07234712486874777 -0.3397248630862393 0.22098985693842402
0.07181886206435786 -0.3563416755198523 0.2294014343562425
0.06771920332566575 -0.3548871352659483 0.22642546426985835
0.06373318575971981 -0.35348034322358385 0.22345558384216366
0.05883762398306 -0.34450438049796756 0.21642521573978238
0.05435329791354048 -0.3353286224982477 0.20949463488371386
0.052490800946867436 -0.34055211703508387 0.21170086509622088
0.05594139161809949 -0.3810146831217499 0.2357897176757697
0.053621121274411515 -0.3829294037293865 0.2360075209739658
0.04817321945588914 -0.3628661208798646 0.22281428970517003
0.04567299441919052 -0.36245649651311174 0.22196431505736705
0.04457874412757026 -0.3738170049488234 0.22843980151465973
0.04284984400344799 -0.3814231654510443 0.2327508255890841
0.04140388933920258 -0.3936524910784878 0.24003965589597256
0.03927678567836317 -0.4019374091890053 0.24510230298741942
0.03652993110715221 -0.4060161011464109 0.24779306213174734