# vtk DataFile Version 4.0
[MyVLM domain - lattices] 
ASCII
DATASET UNSTRUCTURED_GRID
POINTS 152 float
0.0018916144324157278 -0.00552156064648336 0.008484243670807246
0.0010688609733395774 -0.009554518871467221 0.00985094272720555
0.00045780959861706216 -0.013511842923527806 0.011210363514512722
-0.00013255382275044122 -0.017405477019606687 0.012425983008371028
-0.0007201482309470062 -0.021230406268001434 0.013555121683231986
-0.0011946371146526612 -0.024999667653060855 0.014448766126118392
-0.0014108622120167862 -0.02873974099632802 0.014804250591825179
-0.0013224843579428829 -0.032428551068942546 0.014873896100822041
-0.0010167791708201568 -0.036033876074555986 0.015025999470660476
-0.0006138083932142036 -0.03957726780709536 0.015014222569536545
-0.00020084691410191335 -0.043048774735932306 0.014952311913024714
0.0001698744379422134 -0.04643589468507129 0.01498316802665242
0.0004739400232210948 -0.049745047997262544 0.015033406056982748
0.0007082255455298663 -0.0529833644564132 0.015021532201049863
0.0008836440760600275 -0.05614981942891926 0.0149592580745386
0.001017516815515788 -0.059239249731705544 0.014905599130046998
0.0011275777072549662 -0.062246926385890654 0.014914607843528166
0.0012277625198140337 -0.0651716676551128 0.014999791523405158
0.00132638558954348 -0.0680164216075116 0.015127453596650534
0.0014271324949937316 -0.07078553072379455 0.015247959281653463
0.0015306083418583354 -0.07348186159698135 0.015328543270268408
0.0016355657532635378 -0.07610547929427615 0.015368461840948306
0.0017398364473795213 -0.07865462860558836 0.015387777136831296
0.0018410131526058282 -0.08112727924441239 0.015409695438865565
0.001936923789896676 -0.08352193904047131 0.015451272331361298
0.0020259353317291845 -0.08583777454056575 0.015522034227979119
0.0021071205190511294 -0.08807456532634397 0.015624500522007735
0.002180316672546981 -0.09023262962212157 0.01575503389287613
0.0022461021518325993 -0.09231273181304019 0.015904897378435746
0.0023056987632523672 -0.09431596761378636 0.016061566902510545
0.0023607022647827588 -0.09624353385128027 0.016211362670805356
0.0024126938092907785 -0.09809641934744694 0.016342982396999644
0.0024629658139780817 -0.09987520827207053 0.016449748989906036
0.0025123806343549317 -0.10158000557203575 0.016530462901143513
0.0025613283706516186 -0.10321045087808722 0.016589243170149627
0.0026097549007438213 -0.10476579230177352 0.016634683921249793
0.0026572361369983943 -0.10624499741915136 0.016678585814114615
0.002703078927872171 -0.10764695659062774 0.016733632087328646
0.0027464329900004744 -0.10897097223595316 0.016807796119630108
0.0027864017842759935 -0.11021716436858733 0.016899706150896254
0.0028221433614242725 -0.11138651054145285 0.016998188700094046
0.0028529549202113143 -0.11248063816261683 0.017084642407898122
0.002878337166053322 -0.11350154673767611 0.017136212820756704
0.0028980365508205295 -0.11445169655253809 0.017124778742069087
0.0029120651374179955 -0.11533412193994678 0.01701565758986644
0.002920699186668212 -0.11615191404622068 0.016773517400053624
0.0029244586304951574 -0.1169073972367564 0.016371790554575917
0.002924070395798875 -0.11760137001259377 0.015801350144784777
0.0029204190990956736 -0.11823262628861311 0.015075981786679635
0.0029144889643634465 -0.11879784986274887 0.014233589843316071
0.002907300946956263 -0.11929188276235222 0.013333130211846188
0.006212993241944028 -0.006793626540850992 -0.006055536034373137
0.0072288922610571306 -0.011180638618971379 -0.008735691037319351
0.007974780507892725 -0.015360423019446227 -0.009919003667677647
0.008270023946844132 -0.019382037672551405 -0.010166208634366363
0.008140225139500825 -0.02326826730648344 -0.009737736572376065
0.007751519283975376 -0.027052624055611218 -0.009016632930320154
0.007318662739924205 -0.03077598348782843 -0.008470107587128689
0.0069707766105224795 -0.03442586275245759 -0.007955480906670413
0.006702226685381192 -0.037976492812970095 -0.007178211453631583
0.006460614097576536 -0.04145412669830914 -0.006438372721938806
0.006208498480286784 -0.04485250217293655 -0.0056643870318587
0.005928720355726676 -0.04816204286295858 -0.0047467959289148424
0.00562110152420414 -0.05139146316039303 -0.003785205369657469
0.005297776270156929 -0.05454969645365389 -0.0028817244508992333
0.004977662142563614 -0.05763713716465737 -0.0020408614357719946
0.004680078492205027 -0.060649745706255184 -0.0012164436318891471
0.0044193472589770496 -0.06358370222243617 -0.000364809885254177
0.0042022226504668725 -0.06643856419883333 0.0005190977664924259
0.004028605706719037 -0.06921785719340803 0.001394982011456096
0.003894567528214928 -0.07192632752247224 0.002208592205945224
0.003794542923454683 -0.0745670785622177 0.0029244565977734342
0.0037223892098821663 -0.07714026602383545 0.0035407953998827153
0.0036720478837599236 -0.07964410077445766 0.004078058494528862
0.0036379885391020494 -0.08207641428831099 0.004561032244721432
0.003615480687410345 -0.0844354909107046 0.005009326673309836
0.003600729157216099 -0.08672020639818717 0.005435791941743776
0.0035909263662617956 -0.08892999870145081 0.00584685230300938
0.003584242976167935 -0.09106480860209704 0.0062431846264983494
0.00357976601221264 -0.09312500094017759 0.006620618771337236
0.003577378730160166 -0.09511126223021789 0.006971307840593991
0.0035774796054096774 -0.09702438157041926 0.007286232400555225
0.003580588564800478 -0.09886495129520106 0.007558622037827177
0.0035870678637920984 -0.10063317874432647 0.007786106848072266
0.0035969747054953923 -0.1023288187256636 0.007971489390181928
0.0036100119296844893 -0.10395119305930903 0.008122521295923378
0.0036255480079795204 -0.1054992686299391 0.008251011127480558
0.0036426825552804717 -0.10697177128328202 0.00837152253482148
0.0036603380175139954 -0.10836739077767496 0.00849903164868201
0.003677362157174432 -0.10968527049060976 0.008643329709134335
0.0036926294639041822 -0.11092541228169188 0.00880439546079015
0.0037051326977571345 -0.11208871477458075 0.008971957588222102
0.003714058455611533 -0.11317676313748379 0.009127897535910659
0.003718842962038476 -0.1141915480477332 0.009249461757830821
0.003719206248598144 -0.11513555048800253 0.009308292492261566
0.003715164522496519 -0.11601185065403243 0.009269182940784965
0.0037070218583473346 -0.11682360602721303 0.009096042925966
0.003695343396461056 -0.1175732228856962 0.008761368562674116
0.003680913018392471 -0.11826159225772458 0.00825497535149356
0.0036646790161518838 -0.11888760629362 0.007589526072188171
0.003647691596346039 -0.11944804800452925 0.006801791075608275
0.0036310361855396924 -0.11993785516413888 0.0059496318732849334
0.005410766489344848 -0.008624859374677211 -0.0032548118521330844
0.005892211109850776 -0.012836193338780982 -0.004362847234159091
0.006132458642509649 -0.016893087752390925 -0.004577411297906034
0.006047255650667177 -0.020823349778089084 -0.004216341366078034
0.005720055990603616 -0.024649093500918283 -0.0035324025873422833
0.005325630843128663 -0.028403153909963477 -0.0029009006043003707
0.005016871435172548 -0.03209672884826608 -0.002449827348593761
0.004834968294868498 -0.0357086867299727 -0.0019376476886779337
0.004732241848104854 -0.03923787530193613 -0.001351191310814269
0.00464908530328423 -0.04269324114459559 -0.0007927180973539064
0.004547585503985086 -0.04606603806608612 -0.0001622586178304358
0.004411660012619469 -0.04935518259404859 0.0005525712734897794
0.004242349868979272 -0.05256898641197707 0.0012567685995453141
0.00405227310746894 -0.055711710592533284 0.0019016290769468466
0.003859297849485217 -0.058781214721670305 0.002511617750200273
0.0036804214720396232 -0.06177331498795879 0.003134555802768148
0.003527506244425096 -0.0646856741631015 0.0037971578763310106
0.003405829147614405 -0.06751966917991857 0.004483685556737657
0.003315379723667389 -0.07027931330986838 0.005148266941313496
0.003253134023982613 -0.07296845132185573 0.005746956120384731
0.003214621311891553 -0.07558867183117712 0.006261595138023147
0.0031948391851961662 -0.07813915103684299 0.006701600082626794
0.0031888698585714084 -0.08061793162978834 0.007089343099180969
0.0031922930777549615 -0.0830231167352413 0.007446505565540084
0.003201436081938149 -0.08535335068846404 0.0077885828005626575
0.0032135028026517493 -0.08760786939572797 0.008124308435530792
0.003226618152360912 -0.08978645210738864 0.008456205650425883
0.0032398057236901635 -0.09188934875774821 0.008781417683102328
0.003252904392775423 -0.09391718611725162 0.009092780514592497
0.003266372004343082 -0.09587080410837227 0.009380693787095443
0.0032809500730880004 -0.09775099397444853 0.009636113547869026
0.0032973286136308236 -0.09955825221726251 0.009853364755575501
0.0033159342695244357 -0.10129265078175957 0.010031625075726518
0.0033368336138182735 -0.10295381147563011 0.010175217266201133
0.0033597203855484335 -0.10454095353095062 0.010293065545201404
0.0033839603409402744 -0.10605298868257353 0.010397608840283816
0.003408672097906746 -0.10748868002408127 0.010502985056494217
0.0034328265552422406 -0.1088469890789294 0.010621064035050974
0.0034553512046890385 -0.11012752311518069 0.010756334722537479
0.003475228953835527 -0.11133075700985727 0.010903369249753382
0.0034915839677176984 -0.1124579478050329 0.011047799560048806
0.0035037495424018335 -0.113510889806993 0.01116911663873491
0.0035113151685979642 -0.11449181736217769 0.011241781789137869
0.003514151750190315 -0.11540350273982374 0.011234107828884392
0.003512415433327221 -0.11624905075373798 0.01111060657377162
0.0035065316976985676 -0.11703122475271309 0.010839692802568737
0.0034971622838568268 -0.11775165158495157 0.010402771555232965
0.003485158199815951 -0.11841019899440507 0.009801354525313702
0.0034715024876191118 -0.11900467988072623 0.009060440384173132
0.003457246657122113 -0.1195309302663882 0.008227623612730234

CELLS 100 350
4 0 51 52 1
4 1 52 53 2
4 2 53 54 3
4 3 54 55 4
4 4 55 56 5
4 5 56 57 6
4 6 57 58 7
4 7 58 59 8
4 8 59 60 9
4 9 60 61 10
4 10 61 62 11
4 11 62 63 12
4 12 63 64 13
4 13 64 65 14
4 14 65 66 15
4 15 66 67 16
4 16 67 68 17
4 17 68 69 18
4 18 69 70 19
4 19 70 71 20
4 20 71 72 21
4 21 72 73 22
4 22 73 74 23
4 23 74 75 24
4 24 75 76 25
4 25 76 77 26
4 26 77 78 27
4 27 78 79 28
4 28 79 80 29
4 29 80 81 30
4 30 81 82 31
4 31 82 83 32
4 32 83 84 33
4 33 84 85 34
4 34 85 86 35
4 35 86 87 36
4 36 87 88 37
4 37 88 89 38
4 38 89 90 39
4 39 90 91 40
4 40 91 92 41
4 41 92 93 42
4 42 93 94 43
4 43 94 95 44
4 44 95 96 45
4 45 96 97 46
4 46 97 98 47
4 47 98 99 48
4 48 99 100 49
4 49 100 101 50
1 102
1 103
1 104
1 105
1 106
1 107
1 108
1 109
1 110
1 111
1 112
1 113
1 114
1 115
1 116
1 117
1 118
1 119
1 120
1 121
1 122
1 123
1 124
1 125
1 126
1 127
1 128
1 129
1 130
1 131
1 132
1 133
1 134
1 135
1 136
1 137
1 138
1 139
1 140
1 141
1 142
1 143
1 144
1 145
1 146
1 147
1 148
1 149
1 150
1 151

CELL_TYPES 100
9
9
9
9
9
9
9
9
9
9
9
9
9
9
9
9
9
9
9
9
9
9
9
9
9
9
9
9
9
9
9
9
9
9
9
9
9
9
9
9
9
9
9
9
9
9
9
9
9
9
1
1
1
1
1
1
1
1
1
1
1
1
1
1
1
1
1
1
1
1
1
1
1
1
1
1
1
1
1
1
1
1
1
1
1
1
1
1
1
1
1
1
1
1
1
1
1
1
1
1

CELL_DATA 100

VECTORS S float
-2.3389226639723498e-18 1.8417370885961197e-18 -1.69750128264949e-18
9.767580199999999e-25 1.1321304165399999e-21 -1.4314805389999998e-23
4.87906968293e-21 -2.2398165579325e-19 3.84318638801e-21
-9.565543399e-23 -9.219343463849999e-21 -8.167722619999999e-24
7.4458338626e-22 -3.0419409299892e-19 -9.974420488e-22
6.6801308171799995e-21 -1.56027772126746e-18 -1.5031361959919998e-20
5.8149448146899994e-21 -1.0123960129557299e-18 -1.601988229083e-20
3.121355673456e-20 -4.3946039382715495e-18 -9.597592721766e-20
-1.543632569698e-20 1.8845941388464398e-18 5.2121299602009996e-20
-2.917860145153e-20 3.19030342981653e-18 1.0550246417754e-19
-9.278756331525999e-20 9.348213748623459e-18 3.556205045382e-19
3.6850645790639996e-20 -3.48256654066724e-18 -1.4796582645673998e-19
-6.721651965216999e-20 6.07936129401453e-18 2.8189133653251e-19
-8.784680875872e-20 7.64390189181834e-18 3.7982339199888997e-19
2.5405515631179997e-20 -2.20331385008749e-18 -1.1587621525197e-19
-5.8970538670999995e-22 5.1530726742659995e-20 2.8397574279199998e-21
1.1736904061600999e-19 -1.0372405242496939e-17 -5.9432053017216e-19
-1.5352737905919998e-19 1.3894214105322478e-17 8.2301752658188e-19
-2.6963493430917e-19 2.480483299173304e-17 1.5113317238115899e-18
1.0773704182033999e-19 -1.0000557213658779e-17 -6.2152417557577e-19
-1.3688015624613998e-19 1.306012857422858e-17 8.285828496161299e-19
-4.026523922743e-20 4.01385578206718e-18 2.5912320804516e-19
-2.651830955836e-20 2.71260750360578e-18 1.7750627739048e-19
1.7101076991726e-19 -1.793935224680675e-17 -1.1854997289297399e-18
-5.1690754349e-21 5.6125479456164e-19 3.731176214595e-20
-1.0756334325251e-19 1.2148121101784009e-17 8.0902131538778e-19
1.965218557517e-20 -2.3495595176350298e-18 -1.5524953245106e-19
6.071092127375e-20 -7.74241663831199e-18 -5.0852500743328e-19
1.5895935639234998e-19 -2.1828739619700518e-17 -1.41932307075634e-18
-4.4145117401919995e-20 6.589987208433629e-18 4.2253709224613997e-19
8.703350627845999e-20 -1.406889821721882e-17 -8.8596825728619e-19
6.841414927883999e-20 -1.216272504471324e-17 -7.5011660127795e-19
6.26740305941e-21 -1.22061088648995e-18 -7.353893703834e-20
3.6628364580999996e-22 -7.662504434676999e-20 -4.5004429300799995e-21
-2.529683592545e-20 5.6449468557639395e-18 3.2272930055353996e-19
-6.6945279283e-21 1.58651811146925e-18 8.820284475195e-20
-2.389653520215e-20 5.87259930921702e-18 3.1980782722032e-19
-1.247622876429e-20 3.16911528016808e-18 1.6742352903939e-19
3.0577812273829997e-20 -8.06770535646988e-18 -4.1375396849967e-19
1.865952501519e-20 -5.01404469573021e-18 -2.4986694330261e-19
2.926997980734e-20 -8.087537993911679e-18 -3.921203781716e-19
7.609079842599999e-22 -2.0902958454177998e-19 -9.87480564451e-21
3.94466079519e-21 -8.8439783310251e-19 -4.077010285779e-20
-6.094616421886e-20 1.116454358990955e-17 5.0317943643952e-19
-5.1757320613559995e-20 7.062757787148929e-18 3.1178995062974997e-19
3.90711089751e-20 -4.31160778109265e-18 -1.868428328248e-19
7.41894789916e-21 -6.878759779658e-19 -2.932456528755e-20
-5.47430810495e-20 4.00259481979833e-18 1.6819202452487998e-19
1.5087078202097998e-19 -8.386787721839279e-18 -3.4804522745504e-19
-9.37413394172e-21 2.7467775839456e-19 1.1269848634409999e-20
-2.3389226639723498e-18 1.8417370885961197e-18 -1.69750128264949e-18
9.767580199999999e-25 1.1321304165399999e-21 -1.4314805389999998e-23
4.87906968293e-21 -2.2398165579325e-19 3.84318638801e-21
-9.565543399e-23 -9.219343463849999e-21 -8.167722619999999e-24
7.4458338626e-22 -3.0419409299892e-19 -9.974420488e-22
6.6801308171799995e-21 -1.56027772126746e-18 -1.5031361959919998e-20
5.8149448146899994e-21 -1.0123960129557299e-18 -1.601988229083e-20
3.121355673456e-20 -4.3946039382715495e-18 -9.597592721766e-20
-1.543632569698e-20 1.8845941388464398e-18 5.2121299602009996e-20
-2.917860145153e-20 3.19030342981653e-18 1.0550246417754e-19
-9.278756331525999e-20 9.348213748623459e-18 3.556205045382e-19
3.6850645790639996e-20 -3.48256654066724e-18 -1.4796582645673998e-19
-6.721651965216999e-20 6.07936129401453e-18 2.8189133653251e-19
-8.784680875872e-20 7.64390189181834e-18 3.7982339199888997e-19
2.5405515631179997e-20 -2.20331385008749e-18 -1.1587621525197e-19
-5.8970538670999995e-22 5.1530726742659995e-20 2.8397574279199998e-21
1.1736904061600999e-19 -1.0372405242496939e-17 -5.9432053017216e-19
-1.5352737905919998e-19 1.3894214105322478e-17 8.2301752658188e-19
-2.6963493430917e-19 2.480483299173304e-17 1.5113317238115899e-18
1.0773704182033999e-19 -1.0000557213658779e-17 -6.2152417557577e-19
-1.3688015624613998e-19 1.306012857422858e-17 8.285828496161299e-19
-4.026523922743e-20 4.01385578206718e-18 2.5912320804516e-19
-2.651830955836e-20 2.71260750360578e-18 1.7750627739048e-19
1.7101076991726e-19 -1.793935224680675e-17 -1.1854997289297399e-18
-5.1690754349e-21 5.6125479456164e-19 3.731176214595e-20
-1.0756334325251e-19 1.2148121101784009e-17 8.0902131538778e-19
1.965218557517e-20 -2.3495595176350298e-18 -1.5524953245106e-19
6.071092127375e-20 -7.74241663831199e-18 -5.0852500743328e-19
1.5895935639234998e-19 -2.1828739619700518e-17 -1.41932307075634e-18
-4.4145117401919995e-20 6.589987208433629e-18 4.2253709224613997e-19
8.703350627845999e-20 -1.406889821721882e-17 -8.8596825728619e-19
6.841414927883999e-20 -1.216272504471324e-17 -7.5011660127795e-19
6.26740305941e-21 -1.22061088648995e-18 -7.353893703834e-20
3.6628364580999996e-22 -7.662504434676999e-20 -4.5004429300799995e-21
-2.529683592545e-20 5.6449468557639395e-18 3.2272930055353996e-19
-6.6945279283e-21 1.58651811146925e-18 8.820284475195e-20
-2.389653520215e-20 5.87259930921702e-18 3.1980782722032e-19
-1.247622876429e-20 3.16911528016808e-18 1.6742352903939e-19
3.0577812273829997e-20 -8.06770535646988e-18 -4.1375396849967e-19
1.865952501519e-20 -5.01404469573021e-18 -2.4986694330261e-19
2.926997980734e-20 -8.087537993911679e-18 -3.921203781716e-19
7.609079842599999e-22 -2.0902958454177998e-19 -9.87480564451e-21
3.94466079519e-21 -8.8439783310251e-19 -4.077010285779e-20
-6.094616421886e-20 1.116454358990955e-17 5.0317943643952e-19
-5.1757320613559995e-20 7.062757787148929e-18 3.1178995062974997e-19
3.90711089751e-20 -4.31160778109265e-18 -1.868428328248e-19
7.41894789916e-21 -6.878759779658e-19 -2.932456528755e-20
-5.47430810495e-20 4.00259481979833e-18 1.6819202452487998e-19
1.5087078202097998e-19 -8.386787721839279e-18 -3.4804522745504e-19
-9.37413394172e-21 2.7467775839456e-19 1.1269848634409999e-20

SCALARS Gamma float
LOOKUP_TABLE default
-0.00010765914589991324
0.0021906591877785364
-0.0026612686248901137
0.002537165018664809
0.030704308830623316
0.07435884884606368
0.12169812866661182
0.16332563553985016
0.20864278899376099
0.24061716876325423
0.25862551738243644
0.26729647642748955
0.2669840541741601
0.24299618257279748
0.23253957197766412
0.2266240361811902
0.2175495922738619
0.21475394825059874
0.21145437070439999
0.20991408285264596
0.2097989225081931
0.20791481650870036
0.2008479866483831
0.1971789338042932
0.19399028260434042
0.1925765294344009
0.19250716148198932
0.19313579121798471
0.19445774253304188
0.1963378193850337
0.1950249974395005
0.20054817457944285
0.19803568069195648
0.1955337852258887
0.19285661567306783
0.1896148340325501
0.1862921043494197
0.1818182744799446
0.17692441414197596
0.16927482936174754
0.16307486840127106
0.15194730908721174
0.1360803977921951
0.1159481675284956
0.09938021944129677
0.0827463815560857
0.07026651453765846
0.056284503379504185
0.04293126712472159
0.02328956659262677
-0.00010765914589991324
0.0021906591877785364
-0.0026612686248901137
0.002537165018664809
0.030704308830623316
0.07435884884606368
0.12169812866661182
0.16332563553985016
0.20864278899376099
0.24061716876325423
0.25862551738243644
0.26729647642748955
0.2669840541741601
0.24299618257279748
0.23253957197766412
0.2266240361811902
0.2175495922738619
0.21475394825059874
0.21145437070439999
0.20991408285264596
0.2097989225081931
0.20791481650870036
0.2008479866483831
0.1971789338042932
0.19399028260434042
0.1925765294344009
0.19250716148198932
0.19313579121798471
0.19445774253304188
0.1963378193850337
0.1950249974395005
0.20054817457944285
0.19803568069195648
0.1955337852258887
0.19285661567306783
0.1896148340325501
0.1862921043494197
0.1818182744799446
0.17692441414197596
0.16927482936174754
0.16307486840127106
0.15194730908721174
0.1360803977921951
0.1159481675284956
0.09938021944129677
0.0827463815560857
0.07026651453765846
0.056284503379504185
0.04293126712472159
0.02328956659262677

VECTORS Ftot float
0.043916749203255306 -1.9704121416016186e-16 -0.06051122381431138
-0.019247164365909702 -4.2765093896633e-18 -0.0013133131458050048
0.060194258238155836 -2.4884090883335573e-16 -0.0764188750701285
0.011333002440890437 -4.321900726359929e-16 -0.13272527946535354
-0.391550562008695 -9.51775802190915e-16 -0.29228970615561956
-1.183959401021376 -1.7133440601665173e-15 -0.5261668039224792
-2.236596015855877 -2.6435952463121043e-15 -0.8118463150253152
-3.3720432187038045 -3.571044095128934e-15 -1.0966652302267994
-4.768379260632447 -4.5985469649904606e-15 -1.412210667728518
-6.0124822908321285 -5.414730143693098e-15 -1.6628599707713168
-7.00078950980174 -5.948002394722293e-15 -1.826627518964356
-7.777488940131562 -6.307310621024424e-15 -1.9369708326348583
-8.298114899949137 -6.443100053950233e-15 -1.9786716757930483
-8.02064233384725 -6.0405233871958834e-15 -1.8550406532771648
-8.120775077303115 -5.79765452022773e-15 -1.780455788231152
-8.339012067576347 -5.6388376588692085e-15 -1.7316832373508046
-8.403070349636879 -5.4037090797385744e-15 -1.6594754094729784
-8.6806306374112 -5.272895542079693e-15 -1.6193026603912344
-8.915092213537628 -5.17920783401446e-15 -1.5905312285080693
-9.208477441568133 -5.197757187523421e-15 -1.5962277224450139
-9.5509708705936 -5.137752881046403e-15 -1.5778004404444979
-9.801846791250163 -4.959672734476453e-15 -1.5231121476834681
-9.78070657127062 -4.757989597829192e-15 -1.4611753926078788
-9.898472319404075 -4.649554200170416e-15 -1.4278749552090786
-10.021652684662747 -4.5209280558492406e-15 -1.3883739531442822
-10.22071489323698 -4.42493342067805e-15 -1.3588940655046557
-10.480643086711941 -4.3200584779356154e-15 -1.3266870414064273
-10.771320322245431 -4.187401345254694e-15 -1.2859481255383227
-11.093894005842923 -4.045851927993389e-15 -1.2424783950801963
-11.442730717075708 -3.892858814438818e-15 -1.1954943132178912
-11.595480320291516 -3.7091824786267466e-15 -1.1390874345194957
-12.15006779214817 -3.608419269488327e-15 -1.1081431210345665
-12.210649220310739 -3.3886769685377444e-15 -1.0406604087960785
-12.255730869928414 -3.2480493822139213e-15 -0.997473771996376
-12.2748983258205 -3.1330465618552984e-15 -0.9621564835211783
-12.243235366586882 -3.025900912687983e-15 -0.9292521270131886
-12.194584749313487 -2.967112426500927e-15 -0.9111982226027239
-12.051506127543325 -2.924349676929193e-15 -0.898065811085267
-11.865032781846214 -2.8553169189533565e-15 -0.8768658977260263
-11.476029592452585 -2.7906449057105734e-15 -0.8570051661296649
-11.167912657617379 -2.714539448024763e-15 -0.8336332314654104
-10.503064161656775 -2.6353648045946827e-15 -0.8093187519315925
-9.485247709096114 -2.9883927369778505e-15 -0.9177333915804202
-8.143876615958224 -3.212002073065667e-15 -0.9864036676982944
-7.027762881385165 -3.7988129575590886e-15 -1.1666128940756388
-5.887690480440418 -4.009086292982414e-15 -1.2311876933947303
-5.027327978694179 -4.141609003245229e-15 -1.2718853282290048
-4.04603152777327 -4.288192171181413e-15 -1.3169009201202904
-3.09845242867119 -4.373563432573698e-15 -1.3431183768459662
-1.6851658561298797 -4.564328159688086e-15 -1.401702095726788
0.043916749203255306 -1.9704121416016186e-16 -0.06051122381431138
-0.019247164365909702 -4.2765093896633e-18 -0.0013133131458050048
0.060194258238155836 -2.4884090883335573e-16 -0.0764188750701285
0.011333002440890437 -4.321900726359929e-16 -0.13272527946535354
-0.391550562008695 -9.51775802190915e-16 -0.29228970615561956
-1.183959401021376 -1.7133440601665173e-15 -0.5261668039224792
-2.236596015855877 -2.6435952463121043e-15 -0.8118463150253152
-3.3720432187038045 -3.571044095128934e-15 -1.0966652302267994
-4.768379260632447 -4.5985469649904606e-15 -1.412210667728518
-6.0124822908321285 -5.414730143693098e-15 -1.6628599707713168
-7.00078950980174 -5.948002394722293e-15 -1.826627518964356
-7.777488940131562 -6.307310621024424e-15 -1.9369708326348583
-8.298114899949137 -6.443100053950233e-15 -1.9786716757930483
-8.02064233384725 -6.0405233871958834e-15 -1.8550406532771648
-8.120775077303115 -5.79765452022773e-15 -1.780455788231152
-8.339012067576347 -5.6388376588692085e-15 -1.7316832373508046
-8.403070349636879 -5.4037090797385744e-15 -1.6594754094729784
-8.6806306374112 -5.272895542079693e-15 -1.6193026603912344
-8.915092213537628 -5.17920783401446e-15 -1.5905312285080693
-9.208477441568133 -5.197757187523421e-15 -1.5962277224450139
-9.5509708705936 -5.137752881046403e-15 -1.5778004404444979
-9.801846791250163 -4.959672734476453e-15 -1.5231121476834681
-9.78070657127062 -4.757989597829192e-15 -1.4611753926078788
-9.898472319404075 -4.649554200170416e-15 -1.4278749552090786
-10.021652684662747 -4.5209280558492406e-15 -1.3883739531442822
-10.22071489323698 -4.42493342067805e-15 -1.3588940655046557
-10.480643086711941 -4.3200584779356154e-15 -1.3266870414064273
-10.771320322245431 -4.187401345254694e-15 -1.2859481255383227
-11.093894005842923 -4.045851927993389e-15 -1.2424783950801963
-11.442730717075708 -3.892858814438818e-15 -1.1954943132178912
-11.595480320291516 -3.7091824786267466e-15 -1.1390874345194957
-12.15006779214817 -3.608419269488327e-15 -1.1081431210345665
-12.210649220310739 -3.3886769685377444e-15 -1.0406604087960785
-12.255730869928414 -3.2480493822139213e-15 -0.997473771996376
-12.2748983258205 -3.1330465618552984e-15 -0.9621564835211783
-12.243235366586882 -3.025900912687983e-15 -0.9292521270131886
-12.194584749313487 -2.967112426500927e-15 -0.9111982226027239
-12.051506127543325 -2.924349676929193e-15 -0.898065811085267
-11.865032781846214 -2.8553169189533565e-15 -0.8768658977260263
-11.476029592452585 -2.7906449057105734e-15 -0.8570051661296649
-11.167912657617379 -2.714539448024763e-15 -0.8336332314654104
-10.503064161656775 -2.6353648045946827e-15 -0.8093187519315925
-9.485247709096114 -2.9883927369778505e-15 -0.9177333915804202
-8.143876615958224 -3.212002073065667e-15 -0.9864036676982944
-7.027762881385165 -3.7988129575590886e-15 -1.1666128940756388
-5.887690480440418 -4.009086292982414e-15 -1.2311876933947303
-5.027327978694179 -4.141609003245229e-15 -1.2718853282290048
-4.04603152777327 -4.288192171181413e-15 -1.3169009201202904
-3.09845242867119 -4.373563432573698e-15 -1.3431183768459662
-1.6851658561298797 -4.564328159688086e-15 -1.401702095726788

VECTORS D float
0.043387128930513566 -0.001005222042624905 -0.06087211535838445
-0.0032965383842772805 8.659675605009296e-5 0.0066238344584963705
0.034465827309859844 -0.0007359457804794884 -0.08664672851920661
0.041810933109130775 -0.000325455608376216 -0.12230531852500404
0.04825920750373363 0.0006351503343475396 -0.15767931171780805
0.05049146947421857 0.0019515878931240956 -0.18013866585855667
0.0558844904446801 0.0037150576526252875 -0.21449248284761172
0.06253604886833987 0.00602056991398674 -0.2553353581024647
0.06752224873756826 0.008612197962425508 -0.2914010681859944
0.07151202812050034 0.011414927074662925 -0.32539960367288856
0.07334486833161238 0.014118009578259079 -0.35198386490974887
0.07637809019922957 0.01726267602179472 -0.3872775041373298
0.0777230634790698 0.02020261246862066 -0.41716325128132575
0.07568484996434133 0.02226123396852169 -0.43050012018723216
0.06980743628469728 0.022943771820965252 -0.4209564163500467
0.0649880270981259 0.02363153746856093 -0.4153264988603674
0.06019731389753299 0.02402090120015642 -0.40733780555765664
0.05547840690029133 0.024128668008853472 -0.3969920620553964
0.05323666811357652 0.025094141608652313 -0.40236138538152205
0.055632014406424415 0.028601795845905324 -0.45057019197730436
0.05289294832943846 0.02922800542817265 -0.45195421797835283
0.047585341195142156 0.028182943882126575 -0.42916355485466806
0.04497770275347514 0.028506542797806803 -0.42891062992025986
0.04378655369450647 0.029682595857306603 -0.4428500130476379
0.041967585037322584 0.030439413779094843 -0.45206477379182125
0.040491697685880644 0.031454117190327924 -0.4669258957901297
0.03838605643214971 0.03174947562456078 -0.47564016176591695
0.03568231413609375 0.031760643707418934 -0.47930352796153985
0.03282207531591176 0.03149616404112126 -0.4807250737788265
0.029837232105909335 0.0309301405232108 -0.47927641384624725
0.027183955629312813 0.030582584500405227 -0.4829714270954227
0.024792434025447636 0.03029842382106712 -0.4890109675169078
0.0219511367339648 0.02923177915888609 -0.4833228855722128
0.020191854530760396 0.029406564847563415 -0.49903607807701617
0.018631557852144907 0.0298020003803161 -0.5198145584940153
0.01706250324642977 0.030129051498743155 -0.5406408445639185
0.015750824476330295 0.03137871115878515 -0.5750272247619248
0.014524635778462582 0.032189147164533645 -0.6082174114969056
0.013025736223834631 0.03232687801262069 -0.6293726422193765
0.011599580113071857 0.032462730059999424 -0.6505587920612225
0.010100588769915288 0.03210223204561762 -0.6613590921700946
0.008730625445803497 0.03173330762583958 -0.6710569448263416
0.008946012217650024 0.037441058394841596 -0.8113175982207332
0.008451921084491797 0.04100208753771918 -0.9087304613584625
0.008664578265729509 0.049042824786043944 -1.1094941854521767
0.007769547686774903 0.051659212908376925 -1.1904695306407167
0.006739643045872868 0.053033157974046716 -1.2423111472640114
0.005809513823678276 0.05455718392798067 -1.2964483405368443
0.0048858120039617595 0.055257644291589914 -1.3294163226656965
0.004174620793282468 0.057349079387984274 -1.394285196505261
0.043387128930513566 -0.001005222042624905 -0.06087211535838445
-0.0032965383842772805 8.659675605009296e-5 0.0066238344584963705
0.034465827309859844 -0.0007359457804794884 -0.08664672851920661
0.041810933109130775 -0.000325455608376216 -0.12230531852500404
0.04825920750373363 0.0006351503343475396 -0.15767931171780805
0.05049146947421857 0.0019515878931240956 -0.18013866585855667
0.0558844904446801 0.0037150576526252875 -0.21449248284761172
0.06253604886833987 0.00602056991398674 -0.2553353581024647
0.06752224873756826 0.008612197962425508 -0.2914010681859944
0.07151202812050034 0.011414927074662925 -0.32539960367288856
0.07334486833161238 0.014118009578259079 -0.35198386490974887
0.07637809019922957 0.01726267602179472 -0.3872775041373298
0.0777230634790698 0.02020261246862066 -0.41716325128132575
0.07568484996434133 0.02226123396852169 -0.43050012018723216
0.06980743628469728 0.022943771820965252 -0.4209564163500467
0.0649880270981259 0.02363153746856093 -0.4153264988603674
0.06019731389753299 0.02402090120015642 -0.40733780555765664
0.05547840690029133 0.024128668008853472 -0.3969920620553964