# vtk DataFile Version 4.0
[MyVLM domain - lattices] 
ASCII
DATASET UNSTRUCTURED_GRID
POINTS 152 float
0.0018916144324157278 -0.004586790227574796 -0.009023933623794845
0.0010688609733395774 -0.0037539072172520027 -0.013199927427231476
0.00045780959861706216 -0.0029525381274623464 -0.017306780980976755
-0.00013255382275044122 -0.0020584784424397666 -0.021286576768151537
-0.0007201482309470062 -0.001123876595067464 -0.025163632002370036
-0.0011946371146526612 -1.3164692028153226e-5 -0.02887473033677846
-0.0014108622120167862 0.001549013401652638 -0.03229147109691826
-0.0013224843579428829 0.0033331036579091512 -0.035520897084036815
-0.0010167791708201568 0.0050040407784345976 -0.03871925181271658
-0.0006138083932142036 0.006785935740255492 -0.0417820306180935
-0.00020084691410191335 0.008575305405978213 -0.0447574884796241
0.0001698744379422134 0.010242143202284079 -0.04770624845805739
0.0004739400232210948 0.011853212447877572 -0.05059717830659763
0.0007082255455298663 0.01348265373833168 -0.05339570569774895
0.0008836440760600275 0.015119812200141976 -0.056106799080623146
0.001017516815515788 0.01671099736060513 -0.058755494733811746
0.0011275777072549662 0.018207033912967602 -0.061364723479446034
0.0012277625198140337 0.019595633316817386 -0.06394021555802769
0.00132638558954348 0.02090745169448652 -0.06646767578494395
0.0014271324949937316 0.022187645268115036 -0.06892604746799755
0.0015306083418583354 0.023466022923429634 -0.07130143049549309
0.0016355657532635378 0.0247432612757855 -0.0735935093565088
0.0017398364473795213 0.02600110839452534 -0.07581079506608628
0.0018410131526058282 0.027218451907567887 -0.07796313248500887
0.001936923789896676 0.028379775160485645 -0.08005775714806504
0.0020259353317291845 0.029476411310441878 -0.0820987104704416
0.0021071205190511294 0.03050606828967058 -0.08408706126089083
0.002180316672546981 0.031472055222345745 -0.08602126644946861
0.0022461021518325993 0.032382320732210756 -0.08789761953205164
0.0023056987632523672 0.03324825884473627 -0.08971080738730569
0.0023607022647827588 0.03408231502276053 -0.09145502660060005
0.0024126938092907785 0.034894771744320464 -0.09312548237368126
0.0024629658139780817 0.035691703624899825 -0.0947193420668289
0.0025123806343549317 0.036474201977312 -0.09623609679252068
0.0025613283706516186 0.03723851942413717 -0.0976774939815454
0.0026097549007438213 0.03797683729116054 -0.0990471795415661
0.0026572361369983943 0.03867841969535431 -0.10035015969705566
0.002703078927872171 0.03933172781010551 -0.10159181509122985
0.0027464329900004744 0.03992950769674805 -0.10277552829124041
0.0027864017842759935 0.040473007341126056 -0.10390071735173102
0.0028221433614242725 0.040972392038124084 -0.10496264211784957
0.0028529549202113143 0.04144458474149639 -0.10595341128666184
0.002878337166053322 0.041910377741406865 -0.10686332925403388
0.0028980365508205295 0.0423953548514502 -0.10768046609176161
0.0029120651374179955 0.04293106923505228 -0.10839010831810056
0.002920699186668212 0.043549664843844316 -0.10897726696224172
0.0029244586304951574 0.04427531209267808 -0.10943067117463894
0.002924070395798875 0.045116314366821106 -0.10974644902315332
0.0029204190990956736 0.04606012993005125 -0.10993044881543183
0.0029144889643634465 0.04707227454001533 -0.10999875081776948
0.002907300946956263 0.04809911190575232 -0.10997636604339632
0.006212993241944028 0.008641061309724843 -0.002855685151014531
0.0072288922610571306 0.013155649667416482 -0.005314871555902825
0.007974780507892725 0.016270320666163227 -0.008343014713876818
0.008270023946844132 0.01849521377380996 -0.011702232684353314
0.008140225139500825 0.02006726090028051 -0.015282042303273544
0.007751519283975376 0.02133494520206252 -0.018919943206029292
0.007318662739924205 0.02272332008715533 -0.022417729733345573
0.0069707766105224795 0.02410257994072781 -0.025835931237489666
0.006702226685381192 0.025204759879066816 -0.029299501795853635
0.006460614097576536 0.026302857685386753 -0.03268114045146526
0.006208498480286784 0.027331754152925474 -0.03601121278913069
0.005928720355726676 0.028191867292500547 -0.039336154653020025
0.00562110152420414 0.028973815588861616 -0.04261370994972409
0.005297776270156929 0.02977049480801292 -0.045800560672144934
0.004977662142563614 0.030586006431311707 -0.048894794268115896
0.004680078492205027 0.03137834394061591 -0.051915998698739065
0.0044193472589770496 0.03210778573940041 -0.05488269644866821
0.0042022226504668725 0.03276973024658699 -0.05779703327039975
0.004028605706719037 0.033400838736961265 -0.06064191373074343
0.003894567528214928 0.0340504668042878 -0.06339432293835404
0.003794542923454683 0.034750885575172606 -0.06603921261975791
0.0037223892098821663 0.03550371424601679 -0.06857582773127315
0.0036720478837599236 0.0362903481328485 -0.07101284377951336
0.0036379885391020494 0.037088237352747376 -0.07336077594757484
0.003615480687410345 0.03787954130041161 -0.07562794344633593
0.003600729157216099 0.03865256928785737 -0.07781979773313259
0.0035909263662617956 0.039401476724144374 -0.07993906418547905
0.003584242976167935 0.040125647813985144 -0.08198602995343372
0.00357976601221264 0.0408288764253393 -0.08395892592731301
0.003577378730160166 0.04151830142755359 -0.08585442319766996
0.0035774796054096774 0.042202128428452224 -0.08766869542673632
0.003580588564800478 0.042886516945238 -0.08939887038446988
0.0035870678637920984 0.04357362304515338 -0.09104394268020399
0.0035969747054953923 0.04426089704493685 -0.09260510125076937
0.0036100119296844893 0.0449412867446055 -0.0940856345910249
0.0036255480079795204 0.045604049071664036 -0.09549055227794723
0.0036426825552804717 0.04623593445813246 -0.09682603268655268
0.0036603380175139954 0.04682331807351169 -0.09809842917964404
0.003677362157174432 0.04735729214391055 -0.09931189552040388
0.0036926294639041822 0.04783787600683805 -0.10046642269160366
0.0037051326977571345 0.048274414194214264 -0.10155765326644718
0.003714058455611533 0.04868339041950268 -0.10257790076311159
0.003718842962038476 0.049085505170253244 -0.10351751238572476
0.003719206248598144 0.0495065574798476 -0.10436445784744791
0.003715164522496519 0.04997857742797189 -0.10510380127683198
0.0037070218583473346 0.05053439876580705 -0.10572023204425544
0.003695343396461056 0.05119904369565481 -0.10620208210516104
0.003680913018392471 0.051981777766855336 -0.10654503086293446
0.0036646790161518838 0.052871080765611575 -0.10675445028149282
0.003647691596346039 0.053833500139554465 -0.10684593954219067
0.0036310361855396924 0.054816395236639975 -0.10684404538420644
0.005410766489344848 0.007131179435824648 -0.005841941396472299
0.005892211109850776 0.010196433207003098 -0.008935045902193395
0.006132458642509649 0.01241069834375218 -0.012341137492977336
0.006047255650667177 0.014063133623095525 -0.015925379216675268
0.005720055990603616 0.015383697127491684 -0.019580539858382127
0.005325630843128663 0.016713830572159756 -0.023147402531477665
0.005016871435172548 0.018169977142901403 -0.026571668886682602
0.004834968294868498 0.01953239548696595 -0.029955805999597913
0.004732241848104854 0.020789103651506352 -0.033305401146595845
0.00464908530328423 0.022033134582646302 -0.036577072352438185
0.004547585503985086 0.023173539118067542 -0.0398132299080167
0.004411660012619469 0.02419905053678102 -0.04301912757161092
0.004242349868979272 0.025196099672104105 -0.046154461983744205
0.00405227310746894 0.026208996207055944 -0.04919857119989433
0.003859297849485217 0.027215482584566242 -0.05216183408937496
0.0036804214720396232 0.028172052539202717 -0.05506453795693495
0.003527506244425096 0.029054401898468397 -0.05791801602433469
0.003405829147614405 0.029876848995243586 -0.060715591543300154
0.003315379723667389 0.030681126698293596 -0.06343780415752924
0.003253134023982613 0.03150721566624074 -0.06606601057972832
0.003214621311891553 0.032371635457847915 -0.06859250761313689
0.0031948391851961662 0.03326581960086334 -0.07102128986936933
0.0031888698585714084 0.03416941459486011 -0.07336184834154498
0.0031922930777549615 0.03506269537844131 -0.07562338097685078
0.003201436081938149 0.0359315647794668 -0.07781246139461404
0.0032135028026517493 0.036768077204514714 -0.07993279468589592
0.003226618152360912 0.03756993714080061 -0.08198545126588723
0.0032398057236901635 0.038339743584066235 -0.08396921920297006
0.003252904392775423 0.03908401414195321 -0.08588105928678828
0.003266372004343082 0.039811482929439285 -0.08771689873264057
0.0032809500730880004 0.04053037786101896 -0.08947290080098749
0.0032973286136308236 0.0412458619175493 -0.09114665795431648
0.0033159342695244357 0.041958683234060316 -0.09273782133153372
0.0033368336138182735 0.04266490909625953 -0.09424822478743113
0.0033597203855484335 0.04335642052051329 -0.0956816542662535
0.0033839603409402744 0.044021900946988046 -0.0970433867665152
0.003408672097906746 0.044648488137549035 -0.09833942004835947
0.0034328265552422406 0.045225383269890035 -0.09957478968532676
0.0034553512046890385 0.04574850243626499 -0.10075140003487426
0.003475228953835527 0.04622278374780089 -0.10186694841796666
0.0034915839677176984 0.04666129882759642 -0.10291533943664848
0.0035037495424018335 0.04708270615652138 -0.1038878724984006
0.0035113151685979642 0.04751024006789495 -0.10477371325566417
0.003514151750190315 0.04797272860124512 -0.10555941897283773
0.003512415433327221 0.04850245783252918 -0.10622993440545057
0.0035065316976985676 0.0491281630401135 -0.10677186007314128
0.0034971622838568268 0.049866761355878704 -0.10717730738775984
0.003485158199815951 0.05071687748678414 -0.10744691765898337
0.0034715024876191118 0.05165576839819559 -0.10759129613803149
0.003457246657122113 0.05264013407179387 -0.10763063395504464

CELLS 100 350
4 0 51 52 1
4 1 52 53 2
4 2 53 54 3
4 3 54 55 4
4 4 55 56 5
4 5 56 57 6
4 6 57 58 7
4 7 58 59 8
4 8 59 60 9
4 9 60 61 10
4 10 61 62 11
4 11 62 63 12
4 12 63 64 13
4 13 64 65 14
4 14 65 66 15
4 15 66 67 16
4 16 67 68 17
4 17 68 69 18
4 18 69 70 19
4 19 70 71 20
4 20 71 72 21
4 21 72 73 22
4 22 73 74 23
4 23 74 75 24
4 24 75 76 25
4 25 76 77 26
4 26 77 78 27
4 27 78 79 28
4 28 79 80 29
4 29 80 81 30
4 30 81 82 31
4 31 82 83 32
4 32 83 84 33
4 33 84 85 34
4 34 85 86 35
4 35 86 87 36
4 36 87 88 37
4 37 88 89 38
4 38 89 90 39
4 39 90 91 40
4 40 91 92 41
4 41 92 93 42
4 42 93 94 43
4 43 94 95 44
4 44 95 96 45
4 45 96 97 46
4 46 97 98 47
4 47 98 99 48
4 48 99 100 49
4 49 100 101 50
1 102
1 103
1 104
1 105
1 106
1 107
1 108
1 109
1 110
1 111
1 112
1 113
1 114
1 115
1 116
1 117
1 118
1 119
1 120
1 121
1 122
1 123
1 124
1 125
1 126
1 127
1 128
1 129
1 130
1 131
1 132
1 133
1 134
1 135
1 136
1 137
1 138
1 139
1 140
1 141
1 142
1 143
1 144
1 145
1 146
1 147
1 148
1 149
1 150
1 151

CELL_TYPES 100
9
9
9
9
9
9
9
9
9
9
9
9
9
9
9
9
9
9
9
9
9
9
9
9
9
9
9
9
9
9
9
9
9
9
9
9
9
9
9
9
9
9
9
9
9
9
9
9
9
9
1
1
1
1
1
1
1
1
1
1
1
1
1
1
1
1
1
1
1
1
1
1
1
1
1
1
1
1
1
1
1
1
1
1
1
1
1
1
1
1
1
1
1
1
1
1
1
1
1
1

CELL_DATA 100

VECTORS S float
9.491744585969999e-21 -3.9254888794259997e-20 6.331652863074e-20
-2.60939440455987e-18 -4.77722799718428e-18 1.119936528582903e-17
6.59562784410924e-18 -9.1738288220076e-18 1.2458485006954869e-17
8.657687220672999e-20 -1.79075008774685e-18 3.21910124403857e-18
3.2234851294511e-19 -2.2723919819537408e-17 4.056248697343008e-17
4.1075481702169996e-20 -6.5730032751987895e-18 1.158993966631155e-17
-9.263049086699999e-22 -9.41143220837304e-18 1.6295490543380968e-17
1.177730391215e-19 2.548926733085216e-17 -4.336894946724019e-17
3.3009660321469e-19 4.0405586821427075e-17 -6.762448054326122e-17
-3.2820171807113997e-19 -2.966353415040824e-17 4.890318483530913e-17
-1.69906215430903e-18 -1.264116559226618e-16 2.0557342519150218e-16
1.2197605616465999e-19 7.93933551213104e-18 -1.275546622014565e-17
6.8252687474548e-19 4.047363370356866e-17 -6.434688599961742e-17
2.53455312953314e-18 1.3976370640236129e-16 -2.2022805899532518e-16
-3.241951011979e-20 -1.73685939530657e-18 2.7158024430746197e-18
-1.6533293163426e-19 -8.721321617759459e-18 1.353984557674174e-17
5.471551541704e-19 2.837002907007776e-17 -4.375535855021026e-17
4.7269734847307e-19 2.4503097867324678e-17 -3.75555940875097e-17
9.7230617508858e-19 5.005975280748069e-17 -7.631235267117006e-17
-1.9028477381064998e-19 -9.61618956905364e-18 1.459082851414391e-17
-7.390677931390099e-19 -3.8507799643950956e-17 5.828987013671343e-17
1.28042355898047e-18 6.890986409261185e-17 -1.0391585673884537e-16
-8.7216248289259e-19 -4.7744033474108595e-17 7.178880205510707e-17
-5.5662351071346995e-19 -3.112975776598636e-17 4.6710718926607325e-17
-1.259648284189e-20 -7.294089697667899e-19 1.0931692518825899e-18
6.9124783131993e-19 4.1814990328822946e-17 -6.264899673702778e-17
1.9993364975777998e-19 1.282987476075116e-17 -1.923361525703662e-17
-3.6431252042443e-19 -2.483419073880502e-17 3.724268235369866e-17
3.2100497993202e-19 2.398604527433927e-17 -3.60510636558591e-17
4.0250959556898e-19 3.341636886077762e-17 -5.036813364820199e-17
-1.4310062562572e-19 -1.3181274726420799e-17 1.993582628923157e-17
-1.5481877959299e-19 -1.612004593857057e-17 2.4465893788760418e-17
-1.427870409785e-19 -1.6834047958089838e-17 2.5658553585034987e-17
1.4954314654947998e-19 1.9527022474479508e-17 -2.98965407838384e-17
-2.0496986097314998e-19 -2.9391870635625516e-17 4.520667355337027e-17
3.3272591431201996e-19 5.2077500372965e-17 -8.045610946389334e-17
-8.967113832847e-20 -1.5048492865326868e-17 2.3363598551933677e-17
-1.0312265428534e-19 -1.840457068784646e-17 2.86997294044022e-17
4.916850752908e-20 9.432540227249209e-18 -1.4769975709200248e-17
6.587299708680999e-20 1.331458640439353e-17 -2.09296045727679e-17
5.437308902824999e-20 1.1863524874313789e-17 -1.871559690977678e-17
2.2122880025212e-19 5.1125171706240606e-17 -8.091923056814706e-17
-2.3558767642158e-19 -4.6244917421431835e-17 7.34134807087415e-17
2.2562583626872997e-19 3.146102693207441e-17 -5.00776737796846e-17
-4.4641919136401e-19 -4.214683139807354e-17 6.724490692513418e-17
6.013127906398999e-19 4.3143548496403035e-17 -6.89731172426965e-17
-1.7462584179505e-19 -9.95070878442164e-18 1.5937093507303e-17
-7.318498565253299e-19 -3.14839044707308e-17 5.0502495428487435e-17
-4.1398264958157996e-19 -1.285589770276561e-17 2.064793028874534e-17
1.07372161002235e-18 1.691121648616092e-17 -2.718277187168047e-17
9.491744585969999e-21 -3.9254888794259997e-20 6.331652863074e-20
-2.60939440455987e-18 -4.77722799718428e-18 1.119936528582903e-17
6.59562784410924e-18 -9.1738288220076e-18 1.2458485006954869e-17
8.657687220672999e-20 -1.79075008774685e-18 3.21910124403857e-18
3.2234851294511e-19 -2.2723919819537408e-17 4.056248697343008e-17
4.1075481702169996e-20 -6.5730032751987895e-18 1.158993966631155e-17
-9.263049086699999e-22 -9.41143220837304e-18 1.6295490543380968e-17
1.177730391215e-19 2.548926733085216e-17 -4.336894946724019e-17
3.3009660321469e-19 4.0405586821427075e-17 -6.762448054326122e-17
-3.2820171807113997e-19 -2.966353415040824e-17 4.890318483530913e-17
-1.69906215430903e-18 -1.264116559226618e-16 2.0557342519150218e-16
1.2197605616465999e-19 7.93933551213104e-18 -1.275546622014565e-17
6.8252687474548e-19 4.047363370356866e-17 -6.434688599961742e-17
2.53455312953314e-18 1.3976370640236129e-16 -2.2022805899532518e-16
-3.241951011979e-20 -1.73685939530657e-18 2.7158024430746197e-18
-1.6533293163426e-19 -8.721321617759459e-18 1.353984557674174e-17
5.471551541704e-19 2.837002907007776e-17 -4.375535855021026e-17
4.7269734847307e-19 2.4503097867324678e-17 -3.75555940875097e-17
9.7230617508858e-19 5.005975280748069e-17 -7.631235267117006e-17
-1.9028477381064998e-19 -9.61618956905364e-18 1.459082851414391e-17
-7.390677931390099e-19 -3.8507799643950956e-17 5.828987013671343e-17
1.28042355898047e-18 6.890986409261185e-17 -1.0391585673884537e-16
-8.7216248289259e-19 -4.7744033474108595e-17 7.178880205510707e-17
-5.5662351071346995e-19 -3.112975776598636e-17 4.6710718926607325e-17
-1.259648284189e-20 -7.294089697667899e-19 1.0931692518825899e-18
6.9124783131993e-19 4.1814990328822946e-17 -6.264899673702778e-17
1.9993364975777998e-19 1.282987476075116e-17 -1.923361525703662e-17
-3.6431252042443e-19 -2.483419073880502e-17 3.724268235369866e-17
3.2100497993202e-19 2.398604527433927e-17 -3.60510636558591e-17
4.0250959556898e-19 3.341636886077762e-17 -5.036813364820199e-17
-1.4310062562572e-19 -1.3181274726420799e-17 1.993582628923157e-17
-1.5481877959299e-19 -1.612004593857057e-17 2.4465893788760418e-17
-1.427870409785e-19 -1.6834047958089838e-17 2.5658553585034987e-17
1.4954314654947998e-19 1.9527022474479508e-17 -2.98965407838384e-17
-2.0496986097314998e-19 -2.9391870635625516e-17 4.520667355337027e-17
3.3272591431201996e-19 5.2077500372965e-17 -8.045610946389334e-17
-8.967113832847e-20 -1.5048492865326868e-17 2.3363598551933677e-17
-1.0312265428534e-19 -1.840457068784646e-17 2.86997294044022e-17
4.916850752908e-20 9.432540227249209e-18 -1.4769975709200248e-17
6.587299708680999e-20 1.331458640439353e-17 -2.09296045727679e-17
5.437308902824999e-20 1.1863524874313789e-17 -1.871559690977678e-17
2.2122880025212e-19 5.1125171706240606e-17 -8.091923056814706e-17
-2.3558767642158e-19 -4.6244917421431835e-17 7.34134807087415e-17
2.2562583626872997e-19 3.146102693207441e-17 -5.00776737796846e-17
-4.4641919136401e-19 -4.214683139807354e-17 6.724490692513418e-17
6.013127906398999e-19 4.3143548496403035e-17 -6.89731172426965e-17
-1.7462584179505e-19 -9.95070878442164e-18 1.5937093507303e-17
-7.318498565253299e-19 -3.14839044707308e-17 5.0502495428487435e-17
-4.1398264958157996e-19 -1.285589770276561e-17 2.064793028874534e-17
1.07372161002235e-18 1.691121648616092e-17 -2.718277187168047e-17

SCALARS Gamma float
LOOKUP_TABLE default
9.794354436277142e-5
-0.0010378587112012958
0.0005703902071839748
0.013307393037762962
0.050643042636697326
0.09090417435475703
0.13733567015223885
0.178394924262617
0.22122648606085554
0.25122455006894623
0.26737557485843744
0.27175019881608214
0.2674213352952581
0.24072813886630684
0.2272484017747163
0.21917797239723488
0.2068004807363989
0.2032450947348626
0.1975882160884288
0.19149799112081134
0.19262201853880143
0.19017063875723456
0.1837362846290795
0.18119760452052086
0.1798941685272466
0.18028554758886337
0.18196932648360692
0.18264750029831217
0.1865714041704891
0.19147291893574947
0.1932317727525658
0.20189657307336872
0.20204151722010627
0.20197422539415083
0.20158248758755679
0.20077157380673832
0.1993878431085165
0.19791809758251966
0.19673727040653843
0.1933371305082477
0.19403241173933114
0.19633790750530533
0.18360732606822025
0.13770871537997093
0.109548999800901
0.0868288773712454
0.06998333187652048
0.05384767340988949
0.0392196580092161
0.0204986045230523
9.794354436277142e-5
-0.0010378587112012958
0.0005703902071839748
0.013307393037762962
0.050643042636697326
0.09090417435475703
0.13733567015223885
0.178394924262617
0.22122648606085554
0.25122455006894623
0.26737557485843744
0.27175019881608214
0.2674213352952581
0.24072813886630684
0.2272484017747163
0.21917797239723488
0.2068004807363989
0.2032450947348626
0.1975882160884288
0.19149799112081134
0.19262201853880143
0.19017063875723456
0.1837362846290795
0.18119760452052086
0.1798941685272466
0.18028554758886337
0.18196932648360692
0.18264750029831217
0.1865714041704891
0.19147291893574947
0.1932317727525658
0.20189657307336872
0.20204151722010627
0.20197422539415083
0.20158248758755679
0.20077157380673832
0.1993878431085165
0.19791809758251966
0.19673727040653843
0.1933371305082477
0.19403241173933114
0.19633790750530533
0.18360732606822025
0.13770871537997093
0.109548999800901
0.0868288773712454
0.06998333187652048
0.05384767340988949
0.0392196580092161
0.0204986045230523

VECTORS Ftot float
0.0004888707843679245 0.0017191958112513376 0.0009925781644156539
0.029452182296699974 0.04550900675474428 0.026274637300404562
0.02288132764710639 0.07618520007438986 0.043985545771215245
-0.1202928608228166 0.1536099021742144 0.08868671837047631
-0.6751234679190986 0.31320033515319595 0.1808262978109818
-1.4463434029197437 0.5015491272434106 0.28956952362581
-2.515620519107376 0.7222486359243396 0.4169904443727648
-3.66757791614374 0.9594598383727322 0.5539443959611414
-5.031685121581368 1.2189732236181219 0.7037745187908807
-6.24614422894527 1.4342981049347345 0.8280923969822536
-7.200242003942313 1.5838945526362176 0.914461946332518
-7.86692929642656 1.6689350695572303 0.9635601116688904
-8.269889602024682 1.6986219828449587 0.9806998590469699
-7.9069960804477235 1.5886435029219272 0.9172037540583404
-7.898439476299869 1.5161546032105389 0.8753522682967101
-8.02560021315771 1.4676622427054102 0.8473551909054332
-7.949026146535917 1.3994675376585377 0.8079829595893135
-8.177118675361376 1.3704969446240547 0.7912567799022713
-8.292342004535003 1.3436044277381896 0.7757303780390302
-8.35690244144807 1.333861970571266 0.7701055677711385
-8.723655699783638 1.3282249095838605 0.7668510090926215
-8.920883888647612 1.2814100402643067 0.7398224316888996
-8.904182718465421 1.233317980293446 0.7120564679188389
-9.05335600652738 1.2109909722391745 0.6991659638085062
-9.250781278161607 1.1858184733665844 0.6846326148082404
-9.525465627054082 1.166510716177104 0.6734852759974458
-9.863329619310347 1.1429685832990348 0.6598932192429944
-10.140563209342762 1.1087044572306182 0.6401108168338465
-10.596522148534627 1.0723788598117328 0.6191382233855787
-11.109805243365214 1.031245406941847 0.5953898132984509
-11.438165055154478 0.9793507674518735 0.5654284292194156
-12.177635970608986 0.9451891164515698 0.5457051908184278
-12.402554185208537 0.8766624462169846 0.5061412993118206
-12.603343885275805 0.831658698314157 0.48015837334558065
-12.773432148615148 0.7953642846023261 0.45920378381897514
-12.906845028617772 0.7633010952298142 0.440692092803677
-12.9912973241548 0.746992461864444 0.4312762989400655
-13.058794996567388 0.7339636717988066 0.42375412348845454
-13.13453179959063 0.7135254750973509 0.41195412512111834
-13.049656634938748 0.6983820387874881 0.40321105809116287
-13.230510573216026 0.6799018554579715 0.3925415192711927
-13.514049179369449 0.6784847198970269 0.39172333567360307
-12.74744669522581 0.7780915711210024 0.44923137804089736
-9.637516226033238 0.8531798711102858 0.49258362825270224
-7.724039547760418 1.037675135733951 0.5991020189473886
-6.164159465503554 1.1158033537502217 0.6442093666503889
-4.999527088785941 1.1649575427362977 0.672588550893298
-3.8696584657113475 1.217400703733002 0.7028666240119006
-2.834903014969482 1.2554435374309842 0.7248306642881673
-1.494693118006204 1.318466202917323 0.7612168171717535
0.0004888707843679245 0.0017191958112513376 0.0009925781644156539
0.029452182296699974 0.04550900675474428 0.026274637300404562
0.02288132764710639 0.07618520007438986 0.043985545771215245
-0.1202928608228166 0.1536099021742144 0.08868671837047631
-0.6751234679190986 0.31320033515319595 0.1808262978109818
-1.4463434029197437 0.5015491272434106 0.28956952362581
-2.515620519107376 0.7222486359243396 0.4169904443727648
-3.66757791614374 0.9594598383727322 0.5539443959611414
-5.031685121581368 1.2189732236181219 0.7037745187908807
-6.24614422894527 1.4342981049347345 0.8280923969822536
-7.200242003942313 1.5838945526362176 0.914461946332518
-7.86692929642656 1.6689350695572303 0.9635601116688904
-8.269889602024682 1.6986219828449587 0.9806998590469699
-7.9069960804477235 1.5886435029219272 0.9172037540583404
-7.898439476299869 1.5161546032105389 0.8753522682967101
-8.02560021315771 1.4676622427054102 0.8473551909054332
-7.949026146535917 1.3994675376585377 0.8079829595893135
-8.177118675361376 1.3704969446240547 0.7912567799022713
-8.292342004535003 1.3436044277381896 0.7757303780390302
-8.35690244144807 1.333861970571266 0.7701055677711385
-8.723655699783638 1.3282249095838605 0.7668510090926215
-8.920883888647612 1.2814100402643067 0.7398224316888996
-8.904182718465421 1.233317980293446 0.7120564679188389
-9.05335600652738 1.2109909722391745 0.6991659638085062
-9.250781278161607 1.1858184733665844 0.6846326148082404
-9.525465627054082 1.166510716177104 0.6734852759974458
-9.863329619310347 1.1429685832990348 0.6598932192429944
-10.140563209342762 1.1087044572306182 0.6401108168338465
-10.596522148534627 1.0723788598117328 0.6191382233855787
-11.109805243365214 1.031245406941847 0.5953898132984509
-11.438165055154478 0.9793507674518735 0.5654284292194156
-12.177635970608986 0.9451891164515698 0.5457051908184278
-12.402554185208537 0.8766624462169846 0.5061412993118206
-12.603343885275805 0.831658698314157 0.48015837334558065
-12.773432148615148 0.7953642846023261 0.45920378381897514
-12.906845028617772 0.7633010952298142 0.440692092803677
-12.9912973241548 0.746992461864444 0.4312762989400655
-13.058794996567388 0.7339636717988066 0.42375412348845454
-13.13453179959063 0.7135254750973509 0.41195412512111834
-13.049656634938748 0.6983820387874881 0.40321105809116287
-13.230510573216026 0.6799018554579715 0.3925415192711927
-13.514049179369449 0.6784847198970269 0.39172333567360307
-12.74744669522581 0.7780915711210024 0.44923137804089736
-9.637516226033238 0.8531798711102858 0.49258362825270224
-7.724039547760418 1.037675135733951 0.5991020189473886
-6.164159465503554 1.1158033537502217 0.6442093666503889
-4.999527088785941 1.1649575427362977 0.672588550893298
-3.8696584657113475 1.217400703733002 0.7028666240119006
-2.834903014969482 1.2554435374309842 0.7248306642881673
-1.494693118006204 1.318466202917323 0.7612168171717535

VECTORS D float
0.0009555761694866006 0.0015266857407093988 0.0008032625152074154
0.02195158226934435 0.049004975896768874 0.026018285087008684
0.028329239278921288 0.07584036735867543 0.04084745683540868
0.038363419822862364 0.11473106574833175 0.06279183717350507
0.045077919572001406 0.14478332875658567 0.08075229597424011
0.0506453420971884 0.17400730555005092 0.09850528478460317
0.05189395034514045 0.18651632631351261 0.10772512958736176
0.05725668069825875 0.21377928111125538 0.12580015440445969
0.061587558042311995 0.23822830985696297 0.14264190162298604
0.0662682032496645 0.26578634442809523 0.16166455557934875
0.07031251532925296 0.2932681009075073 0.1809181880592604
0.07387582718306979 0.3216902660807504 0.20093487695491002
0.07651411200708115 0.3490503964909221 0.22036125927656253
0.07523000661208322 0.360379339949717 0.22957395593254382
0.0697201292944141 0.3511020149576725 0.22537542352844014
0.06501113159085767 0.3444441676366561 0.2226581410554747
0.06110157651639762 0.33938521381192216 0.2208141069905881
0.0571263123800036 0.332937120238785 0.21794341152463476
0.05561981486389797 0.3395260354182295 0.22343261998042813
0.05722867133168073 0.3653702149516518 0.2415461871287423
0.054951136349092364 0.36995096863183713 0.2450959379344039
0.04937211598240096 0.3485348350373655 0.23173273155938465
0.04683813372909751 0.34769075490369394 0.2318050869687612
0.04564659255443361 0.35793716570862333 0.2390865627245026
0.04381633433167079 0.3652260052532578 0.24419919922527572
0.04221031860715959 0.37695988456220647 0.2520671126595378
0.039976418472478195 0.3860748853397448 0.2579486483496466
0.0372846883742505 0.39074540755181425 0.2609218414495771
0.0339613924816569 0.3943822026881373 0.2626987995580032
0.03041359182192112 0.39544326704863364 0.26259698106213875
0.02715150845121919 0.3997967378903785 0.2645346101131812
0.02404799102123361 0.4066734949897353 0.26810050589153167
0.02051035367702449 0.4030302338700686 0.2645339643072718
0.018167589206436657 0.42097586250345287 0.2750526231857153
0.016026796283088875 0.44546028345657335 0.28969607815557397
0.013837496878945307 0.47197602685223133 0.30555710401658304
0.011905730440614333 0.5095386679738163 0.32823953009493334
0.009809254297733806 0.5463744275078917 0.35041439547153996
0.007497968522232357 0.5711310009372573 0.36476598955647493
0.005298454028650209 0.5973374694179031 0.3800191420979812
0.003162810410654521 0.6138778296713159 0.38913676699581806
0.0012477165054283154 0.6430575575171026 0.40629036936029206
-0.0006187387651373717 0.7670060384332629 0.4831535679745306
-0.0026814282744148875 0.855284318993156 0.5373156531452858
-0.005313950242330155 1.0428560823170165 0.6535916136136874
-0.007604325021409675 1.1216743137997551 0.7015550334839127
-0.009542391950386246 1.169688530993902 0.7302186930658595
-0.01134902992989823 1.2181902808939509 0.7592710086813311
-0.012874286333249569 1.250993532702075 0.7786405187949937
-0.014488475187689856 1.3041132097310753 0.8107555891413455
0.0009555761694866006 0.0015266857407093988 0.0008032625152074154
0.02195158226934435 0.049004975896768874 0.026018285087008684
0.028329239278921288 0.07584036735867543 0.04084745683540868
0.038363419822862364 0.11473106574833175 0.06279183717350507
0.045077919572001406 0.14478332875658567 0.08075229597424011
0.0506453420971884 0.17400730555005092 0.09850528478460317
0.05189395034514045 0.18651632631351261 0.10772512958736176
0.05725668069825875 0.21377928111125538 0.12580015440445969
0.061587558042311995 0.23822830985696297 0.14264190162298604
0.0662682032496645 0.26578634442809523 0.16166455557934875
0.07031251532925296 0.2932681009075073 0.1809181880592604
0.07387582718306979 0.3216902660807504 0.20093487695491002
0.07651411200708115 0.3490503964909221 0.22036125927656253
0.07523000661208322 0.360379339949717 0.22957395593254382
0.0697201292944141 0.3511020149576725 0.22537542352844014
0.06501113159085767 0.3444441676366561 0.2226581410554747
0.06110157651639762 0.33938521381192216 0.2208141069905881
0.0571263123800036 0.332937120238785 0.21794341152463476
0.05561981486389797 0.3395260354182295 0.22343261998042813
0.05722867133168073 0.3653702149516518 0.2415461871287423
0.054951136349092364 0.36995096863183713 0.2450959379344039
0.04937211598240096 0.3485348350373655 0.23173273155938465
0.04683813372909751 0.34769075490369394 0.2318050869687612
0.04564659255443361 0.35793716570862333 0.2390865627245026
0.04381633433167079 0.3652260052532578 0.24419919922527572
0.04221031860715959 0.37695988456220647 0.2520671126595378