# vtk DataFile Version 4.0
[MyVLM domain - lattices] 
ASCII
DATASET UNSTRUCTURED_GRID
POINTS 152 float
0.0018916144324157278 -0.009624235132160722 -0.003137534184564157
0.0010688609733395774 -0.011988171444229421 -0.006679344945701414
0.00045780959861706216 -0.014325501923799194 -0.010149982460518233
-0.00013255382275044122 -0.01650744684658313 -0.013596318715432052
-0.0007201482309470062 -0.01858807558974737 -0.016998674066569085
-0.0011946371146526612 -0.02042682646907394 -0.020408208783063007
-0.0014108622120167862 -0.021738200306662504 -0.023928836067577005
-0.0013224843579428829 -0.022760207003046276 -0.027473927400856336
-0.0010167791708201568 -0.023840254351475933 -0.03091703668700563
-0.0006138083932142036 -0.024745976003166692 -0.0343427383604277
-0.00020084691410191335 -0.025584667009507775 -0.03771198021613277
0.0001698744379422134 -0.026491122877443537 -0.04097570070188029
0.0004739400232210948 -0.027396120988760687 -0.04415909479023786
0.0007082255455298663 -0.028222789698354636 -0.04729014147188264
0.0008836440760600275 -0.028982176363591964 -0.05036481983756588
0.001017516815515788 -0.029729949204174055 -0.053362868312321704
0.0011275777072549662 -0.030517094952800493 -0.056265729243104946
0.0012277625198140337 -0.03135635481164403 -0.05906876521157598
0.00132638558954348 -0.03221594340674083 -0.06178354514774266
0.0014271324949937316 -0.03304904113736087 -0.06442710999265096
0.0015306083418583354 -0.03382474107502808 -0.06701070894829872
0.0016355657532635378 -0.03454234168052426 -0.06953459735407956
0.0017398364473795213 -0.035220767214237635 -0.07199188734250668
0.0018410131526058282 -0.035881907745453516 -0.07437461157993416
0.001936923789896676 -0.03654185150145336 -0.07667691443050949
0.0020259353317291845 -0.03720958457766267 -0.07889552522297547
0.0021071205190511294 -0.03788748347265828 -0.08102957898258836
0.002180316672546981 -0.038572117167075634 -0.08308032449827008
0.0022461021518325993 -0.03925524424096459 -0.08505076140157053
0.0023056987632523672 -0.03992505095752517 -0.0869451895410404
0.0023607022647827588 -0.040568633411749974 -0.08876830555400814
0.0024126938092907785 -0.041175330359332296 -0.09052398981606165
0.0024629658139780817 -0.041738843419715496 -0.09221453475024764
0.0025123806343549317 -0.04225804108039094 -0.09384035219343893
0.0025613283706516186 -0.04273680875750429 -0.09540002796981079
0.0026097549007438213 -0.0431832531346448 -0.09689061148783808
0.0026572361369983943 -0.0436085055627764 -0.09830805126710279
0.002703078927872171 -0.04402452991374905 -0.09964799281436494
0.0027464329900004744 -0.04443884733295468 -0.10090769865657429
0.0027864017842759935 -0.044850163863632345 -0.10208763975547624
0.0028221433614242725 -0.04524793976119662 -0.10319165226437668
0.0028529549202113143 -0.04561462869647298 -0.10422612252481575
0.002878337166053322 -0.0459286724726593 -0.10519889707873388
0.0028980365508205295 -0.04616354486854202 -0.10611963068108035
0.0029120651374179955 -0.046286530425578405 -0.10700023078496515
0.002920699186668212 -0.046264301134693854 -0.1078528277936587
0.0029244586304951574 -0.04607179623749877 -0.10868654307726303
0.002924070395798875 -0.045700406484491966 -0.10950451014633586
0.0029204190990956736 -0.04516313560039961 -0.11030199603214234
0.0029144889643634465 -0.04449573809217417 -0.1110659871584109
0.002907300946956263 -0.043753826001931256 -0.11177624239714465
0.006212993241944028 0.004090878713538855 -0.008129427383971096
0.0072288922610571306 0.005544267372430087 -0.013060630809058872
0.007974780507892725 0.005605451795401886 -0.01740425635484473
0.008270023946844132 0.00480336299282645 -0.021352819165084493
0.008140225139500825 0.0033836605194032783 -0.024995732005451875
0.007751519283975376 0.0017076642879738353 -0.028464504569268825
0.007318662739924205 0.00021608501144377475 -0.031919542437955244
0.0069707766105224795 -0.0012256644561190971 -0.03531185989647696
0.006702226685381192 -0.002895419776569035 -0.0385403330339014
0.006460614097576536 -0.004510126996219659 -0.04170798506406175
0.006208498480286784 -0.006137304058689094 -0.04479024146520215
0.005928720355726676 -0.007880201164115076 -0.047749522237790436
0.00562110152420414 -0.009644861797234205 -0.050620024756697864
0.005297776270156929 -0.011334968275394923 -0.0534368057914431
0.004977662142563614 -0.012946268034710186 -0.05620141314870036
0.004680078492205027 -0.014522314949137187 -0.05889799451476223
0.0044193472589770496 -0.01610429380344151 -0.061511559853869364
0.0042022226504668725 -0.017696975682948684 -0.06404037263297813
0.004028605706719037 -0.019262348854914742 -0.06649826799136023
0.003894567528214928 -0.02074923965856077 -0.06890387161831762
0.003794542923454683 -0.02212418822520876 -0.07126936191009156
0.0037223892098821663 -0.02338551571359587 -0.07359534991492976
0.0036720478837599236 -0.024552512131477123 -0.07587481464419064
0.0036379885391020494 -0.025648558011253285 -0.07809924628001903
0.003615480687410345 -0.026692151136339923 -0.08026191217985174
0.003600729157216099 -0.027695412833936745 -0.0823584005413883
0.0035909263662617956 -0.0286644029868525 -0.08438650574766315
0.003584242976167935 -0.029599760073864313 -0.08634599541140624
0.00357976601221264 -0.030497550475757067 -0.0882383012529248
0.003577378730160166 -0.03135037235516177 -0.09006611732070001
0.0035774796054096774 -0.032149717841759136 -0.0918325402262851
0.003580588564800478 -0.03288920052582626 -0.09353989443272304
0.0035870678637920984 -0.03356658491903716 -0.09518899359122351
0.0035969747054953923 -0.03418451462501135 -0.09677887550875784
0.0036100119296844893 -0.03475030161919361 -0.09830687884391043
0.0036255480079795204 -0.03527508470684724 -0.09976894940312016
0.0036426825552804717 -0.03577260151820943 -0.10116008709789133
0.0036603380175139954 -0.03625697876923979 -0.10247515022410672
0.003677362157174432 -0.03673745236137588 -0.1037107771885564
0.0036926294639041822 -0.0372140022447905 -0.10486697528878074
0.0037051326977571345 -0.03767693967155985 -0.10594727094063124
0.003714058455611533 -0.03810917373269432 -0.10695788472625672
0.003718842962038476 -0.038489241415654935 -0.10790662854335904
0.003719206248598144 -0.03879039335158611 -0.10880323836598703
0.003715164522496519 -0.03897941959795531 -0.10965980162470423
0.0037070218583473346 -0.039022276936621046 -0.11048870903759278
0.003695343396461056 -0.038893021445225946 -0.11129940342015088
0.003680913018392471 -0.038582046267835395 -0.1120953813819836
0.0036646790161518838 -0.03810129597786011 -0.11287229545390841
0.003647691596346039 -0.03748545538884502 -0.11361752139621394
0.0036310361855396924 -0.036789104228545554 -0.11431119381260278
0.005410766489344848 0.0009116289601895855 -0.009173381713669436
0.005892211109850776 0.0008919355169334143 -0.013527998612241307
0.006132458642509649 4.918694928783565e-5 -0.017502190966967243
0.006047255650667177 -0.0013168064874551628 -0.021205080786701278
0.005720055990603616 -0.002967615954586248 -0.024723449071724274
0.005325630843128663 -0.004549222359685451 -0.028186148234039025
0.005016871435172548 -0.005940893205466844 -0.031637121308966246
0.004834968294868498 -0.007370464256573325 -0.03499344285987463
0.004732241848104854 -0.008850358834126087 -0.03825059116766535
0.00464908530328423 -0.01028411702217509 -0.041443674770544024
0.004547585503985086 -0.011766038194420476 -0.04453837150337385
0.004411660012619469 -0.013307804093781512 -0.04753042955944788
0.004242349868979272 -0.014819800113125337 -0.05045246598831792
0.00405227310746894 -0.01625608437403274 -0.053321202266234866
0.003859297849485217 -0.01763973431491352 -0.056128238892534404
0.0036804214720396232 -0.01901585880183883 -0.05885715758266517
0.003527506244425096 -0.02040965727795189 -0.06149878648940292
0.003405829147614405 -0.021806283978996897 -0.06405852902904172
0.003315379723667389 -0.023162468760566032 -0.06655213424617841
0.003253134023982613 -0.024436758232962194 -0.06899468994077217
0.003214621311891553 -0.02561202432149578 -0.0713924302221803
0.0031948391851961662 -0.026697149053747614 -0.07374212229674344
0.0031888698585714084 -0.027713235673485298 -0.07603608521188374
0.0031922930777549615 -0.028680735836210818 -0.078266875173757
0.003201436081938149 -0.029614265998743252 -0.08042917222715064
0.0032135028026517493 -0.030522064439086092 -0.08251997788408977
0.003226618152360912 -0.03140651122773555 -0.08453842586975834
0.0032398057236901635 -0.03226491163211305 -0.08648549698660422
0.003252904392775423 -0.033090507961405786 -0.08836365083293567
0.003266372004343082 -0.03387424437000473 -0.09017618346700049
0.0032809500730880004 -0.034607589859229806 -0.09192619991838678
0.0032973286136308236 -0.03528519126420476 -0.09361564857976862
0.0033159342695244357 -0.0359062728915315 -0.09524481178045384
0.0033368336138182735 -0.036474912321313765 -0.09681220540265682
0.0033597203855484335 -0.03699952760878396 -0.09831476552484258
0.0033839603409402744 -0.0374918521715739 -0.09974822153224693
0.003408672097906746 -0.037965222042359144 -0.10110771950593274
0.0034328265552422406 -0.03843083382981884 -0.10238918421361608
0.0034553512046890385 -0.038892921876885776 -0.10359107448050774
0.003475228953835527 -0.039346366171735 -0.10471525383851109
0.0034915839677176984 -0.039777613583804015 -0.10576665522373206
0.0035037495424018335 -0.040167318326772505 -0.1067523199265496
0.0035113151685979642 -0.04049139020536555 -0.10768101606098154
0.003514151750190315 -0.040719939267843085 -0.10856362267976491
0.003512415433327221 -0.04081949014550017 -0.10941232382068937
0.0035065316976985676 -0.0407602490647167 -0.11023796353051911
0.0034971622838568268 -0.04052467573264685 -0.11104692595375029
0.003485158199815951 -0.04011419610274727 -0.1118386920857693
0.0034715024876191118 -0.03955239097408615 -0.11260467921761504
0.003457246657122113 -0.03888415536828464 -0.11332854689775071

CELLS 100 350
4 0 51 52 1
4 1 52 53 2
4 2 53 54 3
4 3 54 55 4
4 4 55 56 5
4 5 56 57 6
4 6 57 58 7
4 7 58 59 8
4 8 59 60 9
4 9 60 61 10
4 10 61 62 11
4 11 62 63 12
4 12 63 64 13
4 13 64 65 14
4 14 65 66 15
4 15 66 67 16
4 16 67 68 17
4 17 68 69 18
4 18 69 70 19
4 19 70 71 20
4 20 71 72 21
4 21 72 73 22
4 22 73 74 23
4 23 74 75 24
4 24 75 76 25
4 25 76 77 26
4 26 77 78 27
4 27 78 79 28
4 28 79 80 29
4 29 80 81 30
4 30 81 82 31
4 31 82 83 32
4 32 83 84 33
4 33 84 85 34
4 34 85 86 35
4 35 86 87 36
4 36 87 88 37
4 37 88 89 38
4 38 89 90 39
4 39 90 91 40
4 40 91 92 41
4 41 92 93 42
4 42 93 94 43
4 43 94 95 44
4 44 95 96 45
4 45 96 97 46
4 46 97 98 47
4 47 98 99 48
4 48 99 100 49
4 49 100 101 50
1 102
1 103
1 104
1 105
1 106
1 107
1 108
1 109
1 110
1 111
1 112
1 113
1 114
1 115
1 116
1 117
1 118
1 119
1 120
1 121
1 122
1 123
1 124
1 125
1 126
1 127
1 128
1 129
1 130
1 131
1 132
1 133
1 134
1 135
1 136
1 137
1 138
1 139
1 140
1 141
1 142
1 143
1 144
1 145
1 146
1 147
1 148
1 149
1 150
1 151

CELL_TYPES 100
9
9
9
9
9
9
9
9
9
9
9
9
9
9
9
9
9
9
9
9
9
9
9
9
9
9
9
9
9
9
9
9
9
9
9
9
9
9
9
9
9
9
9
9
9
9
9
9
9
9
1
1
1
1
1
1
1
1
1
1
1
1
1
1
1
1
1
1
1
1
1
1
1
1
1
1
1
1
1
1
1
1
1
1
1
1
1
1
1
1
1
1
1
1
1
1
1
1
1
1

CELL_DATA 100

VECTORS S float
1.7104190243778158e-17 -7.13987899012474e-18 1.6577590430448978e-17
-2.00901687146088e-18 -2.4339530454616997e-19 -4.4910849626453395e-18
-2.6100268956417997e-19 3.7413421286376e-19 1.1247902441783199e-18
5.2320298896679996e-20 -1.10747417164605e-18 -4.32522621822766e-18
9.58746649902e-21 -3.2311259577540996e-19 -1.2752930448072099e-18
-9.17764107536e-21 3.6539190725438e-19 1.45172050757417e-18
-4.6578672889571e-19 1.9880936430543628e-17 7.943439426672429e-17
-1.3539660739564e-19 6.40565406643276e-18 2.5735294558438128e-17
-1.0870230474576e-19 5.55008465683858e-18 2.242972112127614e-17
2.5514283582451e-19 -1.405861821582003e-17 -5.716314554958433e-17
-2.2357585107164e-19 1.3143420054792829e-17 5.37772150072638e-17
4.19112159548e-20 -2.4701657608502197e-18 -1.0168931813348989e-17
9.72879572704e-20 -5.58097719584136e-18 -2.3108832886530357e-17
-5.227226272599e-20 2.92370319788748e-18 1.217061989448377e-17
-3.1422965063220997e-19 1.7282917351750568e-17 7.228330120324393e-17
6.784337308911999e-20 -3.68756310668387e-18 -1.548341833182476e-17
1.4580436514429e-19 -8.04293882340092e-18 -3.384918836441344e-17
5.1533565582989996e-20 -2.85283481156083e-18 -1.2053178359735569e-17
1.4393685555542999e-19 -7.99840697850287e-18 -3.391421190878112e-17
6.741252196705e-20 -3.5064991646304e-18 -1.491324741636953e-17
1.3012636810206e-19 -6.8035301935446396e-18 -2.901573859782688e-17
3.3896177128042996e-19 -1.7824973485816548e-17 -7.62011853347512e-17
-1.946173976886e-19 1.056520029054361e-17 4.5005537401925416e-17
1.3139737939124e-19 -7.005255748539799e-18 -2.988831976900036e-17
1.0478356080436e-19 -5.47302146248403e-18 -2.3395816800337298e-17
-3.200874826565e-20 1.6284496014009699e-18 6.97686482277428e-18
2.9954957139027e-19 -1.485098311015376e-17 -6.379080469894911e-17
2.570857463659e-19 -1.231373444126055e-17 -5.3043450864952576e-17
-1.2081512834889998e-19 5.56134726277006e-18 2.40305523378553e-17
-6.591797326432e-20 3.4221982175607198e-18 1.468516374467935e-17
-1.407645336906e-19 7.42599978455638e-18 3.189364632657444e-17
1.2572294731273e-19 -7.000575989036629e-18 -3.00822739361255e-17
9.019588437368e-20 -5.26845038609912e-18 -2.263952938718728e-17
-2.6061217057048e-19 1.6343347728233178e-17 7.01937663052968e-17
1.1260431246905e-19 -7.66299505855463e-18 -3.287559080655788e-17
-1.5756043619201998e-19 1.1731127436204619e-17 5.0243542485646966e-17
-1.0322571746074999e-19 8.34806046746086e-18 3.5674436526499936e-17
-6.89216089267e-20 6.03586167863713e-18 2.572434130146078e-17
-7.637134273849999e-20 7.4098356022496e-18 3.145593863090482e-17
4.542713628487e-20 -4.77879347702941e-18 -2.0219865191810178e-17
-3.7238610691349996e-20 4.32762937402836e-18 1.824848306820986e-17
-8.06908391928e-21 1.0131127237132699e-18 4.25738673758836e-18
-2.766034237074e-20 3.3277810762147996e-18 1.393736154406223e-17
-3.334854232124e-20 2.6131296417514798e-18 1.090949911485102e-17
-3.8629677957756e-19 2.002600742357956e-17 8.336289240206288e-17
2.2606681882390997e-19 -8.75347551018777e-18 -3.63432867467726e-17
-2.8583422915225997e-19 8.481946031378229e-18 3.515867905431428e-17
-4.730471564682e-20 1.0380149306761e-18 4.29472094948193e-18
5.6750328873574e-19 -8.669054009658579e-18 -3.58210867184776e-17
-1.5152562857759998e-18 1.159771768814333e-17 4.7931165259203555e-17
1.7104190243778158e-17 -7.13987899012474e-18 1.6577590430448978e-17
-2.00901687146088e-18 -2.4339530454616997e-19 -4.4910849626453395e-18
-2.6100268956417997e-19 3.7413421286376e-19 1.1247902441783199e-18
5.2320298896679996e-20 -1.10747417164605e-18 -4.32522621822766e-18
9.58746649902e-21 -3.2311259577540996e-19 -1.2752930448072099e-18
-9.17764107536e-21 3.6539190725438e-19 1.45172050757417e-18
-4.6578672889571e-19 1.9880936430543628e-17 7.943439426672429e-17
-1.3539660739564e-19 6.40565406643276e-18 2.5735294558438128e-17
-1.0870230474576e-19 5.55008465683858e-18 2.242972112127614e-17
2.5514283582451e-19 -1.405861821582003e-17 -5.716314554958433e-17
-2.2357585107164e-19 1.3143420054792829e-17 5.37772150072638e-17
4.19112159548e-20 -2.4701657608502197e-18 -1.0168931813348989e-17
9.72879572704e-20 -5.58097719584136e-18 -2.3108832886530357e-17
-5.227226272599e-20 2.92370319788748e-18 1.217061989448377e-17
-3.1422965063220997e-19 1.7282917351750568e-17 7.228330120324393e-17
6.784337308911999e-20 -3.68756310668387e-18 -1.548341833182476e-17
1.4580436514429e-19 -8.04293882340092e-18 -3.384918836441344e-17
5.1533565582989996e-20 -2.85283481156083e-18 -1.2053178359735569e-17
1.4393685555542999e-19 -7.99840697850287e-18 -3.391421190878112e-17
6.741252196705e-20 -3.5064991646304e-18 -1.491324741636953e-17
1.3012636810206e-19 -6.8035301935446396e-18 -2.901573859782688e-17
3.3896177128042996e-19 -1.7824973485816548e-17 -7.62011853347512e-17
-1.946173976886e-19 1.056520029054361e-17 4.5005537401925416e-17
1.3139737939124e-19 -7.005255748539799e-18 -2.988831976900036e-17
1.0478356080436e-19 -5.47302146248403e-18 -2.3395816800337298e-17
-3.200874826565e-20 1.6284496014009699e-18 6.97686482277428e-18
2.9954957139027e-19 -1.485098311015376e-17 -6.379080469894911e-17
2.570857463659e-19 -1.231373444126055e-17 -5.3043450864952576e-17
-1.2081512834889998e-19 5.56134726277006e-18 2.40305523378553e-17
-6.591797326432e-20 3.4221982175607198e-18 1.468516374467935e-17
-1.407645336906e-19 7.42599978455638e-18 3.189364632657444e-17
1.2572294731273e-19 -7.000575989036629e-18 -3.00822739361255e-17
9.019588437368e-20 -5.26845038609912e-18 -2.263952938718728e-17
-2.6061217057048e-19 1.6343347728233178e-17 7.01937663052968e-17
1.1260431246905e-19 -7.66299505855463e-18 -3.287559080655788e-17
-1.5756043619201998e-19 1.1731127436204619e-17 5.0243542485646966e-17
-1.0322571746074999e-19 8.34806046746086e-18 3.5674436526499936e-17
-6.89216089267e-20 6.03586167863713e-18 2.572434130146078e-17
-7.637134273849999e-20 7.4098356022496e-18 3.145593863090482e-17
4.542713628487e-20 -4.77879347702941e-18 -2.0219865191810178e-17
-3.7238610691349996e-20 4.32762937402836e-18 1.824848306820986e-17
-8.06908391928e-21 1.0131127237132699e-18 4.25738673758836e-18
-2.766034237074e-20 3.3277810762147996e-18 1.393736154406223e-17
-3.334854232124e-20 2.6131296417514798e-18 1.090949911485102e-17
-3.8629677957756e-19 2.002600742357956e-17 8.336289240206288e-17
2.2606681882390997e-19 -8.75347551018777e-18 -3.63432867467726e-17
-2.8583422915225997e-19 8.481946031378229e-18 3.515867905431428e-17
-4.730471564682e-20 1.0380149306761e-18 4.29472094948193e-18
5.6750328873574e-19 -8.669054009658579e-18 -3.58210867184776e-17
-1.5152562857759998e-18 1.159771768814333e-17 4.7931165259203555e-17

SCALARS Gamma float
LOOKUP_TABLE default
-6.753068009122062e-5
-0.0001290186652711031
0.0005202044350876865
0.020761962031204683
0.05728381266736284
0.11049132650102005
0.16913777723746604
0.23370194903651617
0.28196110577602607
0.3235312778441916
0.3649355816991373
0.37550448523208135
0.35325568835733717
0.35314570716374966
0.3368641864832768
0.32276333677504226
0.30776913755149765
0.29070393638285374
0.2804512606376043
0.2611156192361361
0.2506830885360836
0.24083354195437937
0.22402517741804923
0.2101185090465916
0.1967016205057005
0.1858184313707431
0.1763062709003685
0.16438384416929427
0.15264122745287556
0.15609372652181774
0.1518560338097798
0.15721137722349768
0.15717359499270883
0.15859986770866244
0.16111233197164287
0.16358696391253374
0.16602270486887022
0.16820469718149764
0.17088120955526095
0.17094755636732273
0.17369360646128532
0.1759904872023252
0.184542322425783
0.12781590250091918
0.10087925848024276
0.07990951372771256
0.06361153581459296
0.048622795161708074
0.03472273871123296
0.018132647752527747
-6.753068009122062e-5
-0.0001290186652711031
0.0005202044350876865
0.020761962031204683
0.05728381266736284
0.11049132650102005
0.16913777723746604
0.23370194903651617
0.28196110577602607
0.3235312778441916
0.3649355816991373
0.37550448523208135
0.35325568835733717
0.35314570716374966
0.3368641864832768
0.32276333677504226
0.30776913755149765
0.29070393638285374
0.2804512606376043
0.2611156192361361
0.2506830885360836
0.24083354195437937
0.22402517741804923
0.2101185090465916
0.1967016205057005
0.1858184313707431
0.1763062709003685
0.16438384416929427
0.15264122745287556
0.15609372652181774
0.1518560338097798
0.15721137722349768
0.15717359499270883
0.15859986770866244
0.16111233197164287
0.16358696391253374
0.16602270486887022
0.16820469718149764
0.17088120955526095
0.17094755636732273
0.17369360646128532
0.1759904872023252
0.184542322425783
0.12781590250091918
0.10087925848024276
0.07990951372771256
0.06361153581459296
0.048622795161708074
0.03472273871123296
0.018132647752527747

VECTORS Ftot float
0.030100028586905407 0.04445209200013541 -0.01191090215331034
0.018708570410957418 0.03915242858929554 -0.010490861622219017
0.025160576422716054 0.09027074911952121 -0.024187974326728364
-0.21271055168882572 0.216238451482908 -0.057940918447402144
-0.7829837751339207 0.40356819074380135 -0.10813577080069164
-1.7907873841252857 0.6965418127598313 -0.18663781622350845
-3.133345555514841 1.0399199097737497 -0.27864570001692424
-4.8643169504009105 1.3438392242838044 -0.3600806349041144
-6.49082555345488 1.5340395640546682 -0.41104466234584286
-8.144730782066764 1.6516205140895335 -0.44255038295296945
-9.952491786426387 1.7574159067416508 -0.470898172977038
-10.995866014287257 1.8101565273703353 -0.4850299796828103
-11.034299335346324 1.756917319860666 -0.47076457702492136
-11.707586949374813 1.8137930178026296 -0.4860043743574271
-11.801766093220682 1.7783546217905586 -0.4765086847649383
-11.902540699852251 1.7508617172580958 -0.46914198319787886
-11.906105189615655 1.6904486988421592 -0.452954363701002
-11.761858678818813 1.6086070121810685 -0.43102494985296164
-11.832335418441353 1.5640944500939589 -0.41909784478868034
-11.44542494899721 1.5762519010462215 -0.42235542395336007
-11.399505065047887 1.5273430034796023 -0.4092503243476879
-11.335811372042961 1.4817968154627632 -0.39704626005025967
-10.887954095700161 1.4183329246948801 -0.3800411617704683
-10.524431258673289 1.3783405082284639 -0.36932522607492285
-10.136159624252343 1.3345201593356877 -0.3575835989770533
-9.834714595072239 1.3062345599819583 -0.3500044954727912
-9.569725726113175 1.278758327260744 -0.3426422611040921
-9.136632693156153 1.2367728577524892 -0.33139228845551366
-8.675176481962675 1.1942443920372283 -0.31999682041177474
-9.061851966997423 1.1651311572327903 -0.3121959526568679
-8.993491851580217 1.1304497685056965 -0.3029031025550532
-9.489960364909406 1.1256298826595825 -0.30161161803497677
-9.658149843966505 1.0919187247948738 -0.2925787405092099
-9.911242566420013 1.0478598136473343 -0.28077319084783203
-10.228552016996352 1.00504900023632 -0.26930206796703116
-10.540454453511314 0.9590950345266814 -0.25698873996612587
-10.845982815912892 0.9246069512933293 -0.2477476859152518
-11.131072872573395 0.8952297745833759 -0.23987609513991331
-11.448120607386567 0.858210248417668 -0.22995674299962904
-11.581826591997682 0.8232306147831324 -0.22058397841571864
-11.891516962907918 0.787890526916282 -0.21111463041135106
-12.165673263429266 0.769019709688945 -0.20605821017477072
-12.87087305621499 0.8753184544616689 -0.23454087299306434
-8.98985243924015 0.9668989853608457 -0.25907980228991245
-7.153898336605057 1.1958083994692847 -0.32041589494015055
-5.712097904093103 1.3114081166800733 -0.35139074581204777
-4.582941046347181 1.3953667578527018 -0.37388739591186815
-3.5319266586174103 1.4818066955347078 -0.3970489074075583
-2.5466957695544115 1.5554171465853202 -0.4167727683210608
-1.356577837965565 1.6505252875821952 -0.442256917894799
0.030100028586905407 0.04445209200013541 -0.01191090215331034
0.018708570410957418 0.03915242858929554 -0.010490861622219017
0.025160576422716054 0.09027074911952121 -0.024187974326728364
-0.21271055168882572 0.216238451482908 -0.057940918447402144
-0.7829837751339207 0.40356819074380135 -0.10813577080069164
-1.7907873841252857 0.6965418127598313 -0.18663781622350845
-3.133345555514841 1.0399199097737497 -0.27864570001692424
-4.8643169504009105 1.3438392242838044 -0.3600806349041144
-6.49082555345488 1.5340395640546682 -0.41104466234584286
-8.144730782066764 1.6516205140895335 -0.44255038295296945
-9.952491786426387 1.7574159067416508 -0.470898172977038
-10.995866014287257 1.8101565273703353 -0.4850299796828103
-11.034299335346324 1.756917319860666 -0.47076457702492136
-11.707586949374813 1.8137930178026296 -0.4860043743574271
-11.801766093220682 1.7783546217905586 -0.4765086847649383
-11.902540699852251 1.7508617172580958 -0.46914198319787886
-11.906105189615655 1.6904486988421592 -0.452954363701002
-11.761858678818813 1.6086070121810685 -0.43102494985296164
-11.832335418441353 1.5640944500939589 -0.41909784478868034
-11.44542494899721 1.5762519010462215 -0.42235542395336007
-11.399505065047887 1.5273430034796023 -0.4092503243476879
-11.335811372042961 1.4817968154627632 -0.39704626005025967
-10.887954095700161 1.4183329246948801 -0.3800411617704683
-10.524431258673289 1.3783405082284639 -0.36932522607492285
-10.136159624252343 1.3345201593356877 -0.3575835989770533
-9.834714595072239 1.3062345599819583 -0.3500044954727912
-9.569725726113175 1.278758327260744 -0.3426422611040921
-9.136632693156153 1.2367728577524892 -0.33139228845551366
-8.675176481962675 1.1942443920372283 -0.31999682041177474
-9.061851966997423 1.1651311572327903 -0.3121959526568679
-8.993491851580217 1.1304497685056965 -0.3029031025550532
-9.489960364909406 1.1256298826595825 -0.30161161803497677
-9.658149843966505 1.0919187247948738 -0.2925787405092099
-9.911242566420013 1.0478598136473343 -0.28077319084783203
-10.228552016996352 1.00504900023632 -0.26930206796703116
-10.540454453511314 0.9590950345266814 -0.25698873996612587
-10.845982815912892 0.9246069512933293 -0.2477476859152518
-11.131072872573395 0.8952297745833759 -0.23987609513991331
-11.448120607386567 0.858210248417668 -0.22995674299962904
-11.581826591997682 0.8232306147831324 -0.22058397841571864
-11.891516962907918 0.787890526916282 -0.21111463041135106
-12.165673263429266 0.769019709688945 -0.20605821017477072
-12.87087305621499 0.8753184544616689 -0.23454087299306434
-8.98985243924015 0.9668989853608457 -0.25907980228991245
-7.153898336605057 1.1958083994692847 -0.32041589494015055
-5.712097904093103 1.3114081166800733 -0.35139074581204777
-4.582941046347181 1.3953667578527018 -0.37388739591186815
-3.5319266586174103 1.4818066955347078 -0.3970489074075583
-2.5466957695544115 1.5554171465853202 -0.4167727683210608
-1.356577837965565 1.6505252875821952 -0.442256917894799

VECTORS D float
0.029758900330029273 0.04480717972519209 -0.011406003324615216
0.017741511706219647 0.039687319833741484 -0.010087251525494726
0.030303786297960263 0.08893360438351999 -0.022549746031934964
0.04187915110285196 0.15037529502126265 -0.03799700114964315
0.051951190223995726 0.21802241594379 -0.054848341517883877
0.06965223190273616 0.3307546925211597 -0.08280922128049523
0.08884898248052038 0.4657496400783219 -0.11604739225527065
0.0927985701852949 0.5256083620743257 -0.13033854043059315
0.0853443182778958 0.5156576890180613 -0.12718244192524827
0.06967525162074341 0.4437875612882438 -0.10883345715115547
0.05257384361601643 0.3504518234398511 -0.08543360384108631
0.046165835723483414 0.32105439965743154 -0.07779801591892332
0.04465738824458358 0.32386272015646894 -0.07802755935580198
0.04715263604917152 0.35694076740757613 -0.08554404764691062
0.047193837150802095 0.3734700666505387 -0.0890914289346976
0.047976181932797214 0.3974869458590373 -0.09445610133273552
0.04523993496917582 0.3901726786187102 -0.09251444291608701
0.041726562568140634 0.37455046251497004 -0.0884729527576369
0.03955910990150186 0.3687670893251823 -0.08680299736084114
0.04760817503470973 0.45964242094341995 -0.10785889437842074
0.045178501895273906 0.4503577002263662 -0.10539601763735626
0.04300368348931034 0.44109160850860507 -0.1029888129335431
0.04171549593358544 0.4347247462108267 -0.10187269652545222
0.041749873626281395 0.44157862448926594 -0.10331411727112279
0.04136295355167132 0.4424618979593525 -0.10332057764572575
0.0415372400496117 0.4482381029997148 -0.10443137764743042
0.04140002596795996 0.4501575031652437 -0.10460567393487831
0.04123316446385674 0.4519359131388273 -0.10471449857476879
0.0412309612109042 0.45644358697544635 -0.10542662247397645
0.03810824920003696 0.4617458101782994 -0.1074331684301446
0.03666293073647058 0.46765786082781374 -0.10872592923046427
0.03457423384118031 0.47070258164850026 -0.10939473603205618
0.03235984047315561 0.47778655905067746 -0.11105690467650733
0.029296325944297007 0.4777410479565999 -0.11112458416585273
0.026312530639199704 0.4838636936279856 -0.11269401090502265
0.02329413903053668 0.494822291230778 -0.11546067086439718
0.02073344401352854 0.5236453620677164 -0.12247657838035872
0.01806462462600066 0.5624861320428304 -0.1319312089042895
0.014646737859625569 0.5987562302132564 -0.14100887888648195
0.011087948045642894 0.6383432052454268 -0.15084208636768126
0.007219507293029438 0.6723850308669318 -0.1594414371287604
0.0033464182451801113 0.7207407271425834 -0.1715053490889726
-0.0007723206649022235 0.8916348299405433 -0.21289444686094633
-0.005901504631687178 1.022174564658339 -0.24485738826393158
-0.012824617421553358 1.2714253151495518 -0.3054899629117353
-0.01928281318871483 1.3939051356699987 -0.3358494722256171
-0.025327486802643875 1.4776395055640372 -0.3566828544189671
-0.030849871165132905 1.5561915683268488 -0.3764643724975363
-0.03571740691911836 1.616918167412704 -0.39187590199907824
-0.040522478006325434 1.689871422611835 -0.4101726616056444
0.029758900330029273 0.04480717972519209 -0.011406003324615216
0.017741511706219647 0.039687319833741484 -0.010087251525494726
0.030303786297960263 0.08893360438351999 -0.022549746031934964
0.04187915110285196 0.15037529502126265 -0.03799700114964315
0.051951190223995726 0.21802241594379 -0.054848341517883877
0.06965223190273616 0.3307546925211597 -0.08280922128049523
0.08884898248052038 0.4657496400783219 -0.11604739225527065
0.0927985701852949 0.5256083620743257 -0.13033854043059315
0.0853443182778958 0.5156576890180613 -0.12718244192524827
0.06967525162074341 0.4437875612882438 -0.10883345715115547
0.05257384361601643 0.3504518234398511 -0.08543360384108631
0.046165835723483414 0.32105439965743154 -0.07779801591892332
0.04465738824458358 0.32386272015646894 -0.07802755935580198
0.04715263604917152 0.35694076740757613 -0.08554404764691062
0.047193837150802095 0.3734700666505387 -0.0890914289346976
0.047976181932797214 0.3974869458590373 -0.09445610133273552
0.04523993496917582 0.3901726786187102 -0.09251444291608701
0.041726562568140634 0.37455046251497004 -0.0884729527576369
0.03955910990150186 0.3687670893251823 -0.08680299736084114
0.04760817503470973 0.45964242094341995 -0.10785889437842074
0.045178501895273906 0.4503577002263662 -0.10539601763735626