# vtk DataFile Version 4.0
[MyVLM domain - lattices] 
ASCII
DATASET UNSTRUCTURED_GRID
POINTS 152 float
0.0018916144324157278 -0.008589829722844144 0.005355823743456376
0.0010688609733395774 -0.012822523146478242 0.004890071946090242
0.00045780959861706216 -0.01698359280079412 0.004449688179459696
-0.00013255382275044122 -0.02102616669937434 0.0039058927192778315
-0.0007201482309470062 -0.02496992448609268 0.003312754942710791
-0.0011946371146526612 -0.028763705891815487 0.002529713165540589
-0.0014108622120167862 -0.03230359771387954 0.001271268209866893
-0.0013224843579428829 -0.03567622847153962 -0.00022457002377708447
-0.0010167791708201568 -0.03900804426069106 -0.001610393742140655
-0.0006138083932142036 -0.042214470646931096 -0.0031185692940086164
-0.00020084691410191335 -0.045334559835249456 -0.004641801627991731
0.0001698744379422134 -0.04841737337788671 -0.006045295237145644
0.0004739400232210948 -0.05143771630227525 -0.007398272739683654
0.0007082255455298663 -0.05436760961773792 -0.008777605780710351
0.0008836440760600275 -0.05721107423352348 -0.010172247002859144
0.001017516815515788 -0.05998837172459781 -0.011526528186428657
0.0011275777072549662 -0.06271805974400604 -0.012789462598719312
0.0012277625198140337 -0.06540477571008782 -0.013948309037558332
0.00132638558954348 -0.06803695069283532 -0.015034852876909591
0.0014271324949937316 -0.07059754375120256 -0.0160959137175031
0.0015306083418583354 -0.07307530568319165 -0.017162398487814905
0.0016355657532635378 -0.07546998114940902 -0.018235008727063226
0.0017398364473795213 -0.07778845801734145 -0.019294820174859843
0.0018410131526058282 -0.08003870362063487 -0.020319942761919427
0.001936923789896676 -0.08222657359514178 -0.021294288260960536
0.0020259353317291845 -0.08435533861211938 -0.022208870576557654
0.0021071205190511294 -0.08642586364631141 -0.023061313210133955
0.002180316672546981 -0.08843689990879597 -0.023855047181054
0.0022461021518325993 -0.09038544776802311 -0.024598313909267925
0.0023056987632523672 -0.09226720737544221 -0.025302927131575708
0.0023607022647827588 -0.09407748209372475 -0.02598179075298474
0.0024126938092907785 -0.09581239154728287 -0.02664556601780174
0.0024629658139780817 -0.09746964331306987 -0.02730055130658335
0.0025123806343549317 -0.09904882555421289 -0.0279478781318382
0.0025613283706516186 -0.10055135244653671 -0.02858366107742062
0.0026097549007438213 -0.10198017458156641 -0.02919979345974136
0.0026572361369983943 -0.10333934343972005 -0.0297851439278365
0.002703078927872171 -0.1046332135142376 -0.030327748609856073
0.0027464329900004744 -0.10586452227816925 -0.030820086360408144
0.0027864017842759935 -0.10703279876976969 -0.03126345113625366
0.0028221433614242725 -0.10813420683573298 -0.03166838268197805
0.0028529549202113143 -0.10916236013451895 -0.03205242732675584
0.002878337166053322 -0.11010941212418725 -0.032437143267389154
0.0028980365508205295 -0.1109657080497885 -0.032849056725091544
0.0029120651374179955 -0.1117193404582128 -0.033320883158405756
0.002920699186668212 -0.11235817894618969 -0.033885950576406386
0.0029244586304951574 -0.11287310214361715 -0.03456931973748304
0.002924070395798875 -0.11326097653993741 -0.03537959989113689
0.0029204190990956736 -0.11352653510388538 -0.03630378731264178
0.0029144889643634465 -0.11368279141173263 -0.03730612749504524
0.002907300946956263 -0.11374998659147599 -0.03833100839623165
0.006212993241944028 -0.0035979365234371304 -0.008359290102243427
0.0072288922610571306 -0.006441237283120688 -0.012642366870569558
0.007974780507892725 -0.009729318906467516 -0.015481265539741714
0.008270023946844132 -0.01326966624972178 -0.0174049171201321
0.008140225139500825 -0.016972866547209777 -0.018658981166440224
0.007751519283975376 -0.020707410105609544 -0.01960477759150756
0.007318662739924205 -0.024312891343501185 -0.020683017108239755
0.0069707766105224795 -0.027838295975918866 -0.021759112570704623
0.006702226685381192 -0.03138474791379518 -0.022555228317047902
0.006460614097576536 -0.03484922394329693 -0.023354418300955988
0.006208498480286784 -0.03825629858617997 -0.024089164578810735
0.005928720355726676 -0.041643551841976455 -0.024656216950474413
0.00562110152420414 -0.044976786335815144 -0.02514953193121043
0.005297776270156929 -0.04822094529817736 -0.025665427203670342
0.004977662142563614 -0.051374480922388915 -0.026208155331741187
0.004680078492205027 -0.0544532455221572 -0.02673416244146578
0.0044193472589770496 -0.05747222913324155 -0.027202263748078534
0.0042022226504668725 -0.0604331682886856 -0.02760768816625391
0.004028605706719037 -0.06332222784921768 -0.027988447428735897
0.003894567528214928 -0.0661207821255358 -0.0283957151963034
0.003794542923454683 -0.06881665272139875 -0.02886295133763441
0.0037223892098821663 -0.07140922858855876 -0.029391834693991804
0.0036720478837599236 -0.07390553071565743 -0.029963075257620528
0.0036379885391020494 -0.07631406892054994 -0.03055329249611983
0.003615480687410345 -0.07864157584579948 -0.031143988626074138
0.003600729157216099 -0.0808924632937065 -0.03172304232028374
0.0035909263662617956 -0.08306893688123657 -0.03228439369593989
0.003584242976167935 -0.08517122899565975 -0.03282740427426547
0.00357976601221264 -0.0871979079166688 -0.03335600767447559
0.003577378730160166 -0.08914627959578254 -0.03387760573393924
0.0035774796054096774 -0.09101324742144774 -0.03440070632297572
0.003580588564800478 -0.09279648693062145 -0.03493169585130792
0.0035870678637920984 -0.09449518447209394 -0.03547280980726182
0.0035969747054953923 -0.09611030223889394 -0.03602140458721793
0.0036100119296844893 -0.09764450157243701 -0.036570168215731426
0.0036255480079795204 -0.09910183666628429 -0.03710796188753906
0.0036426825552804717 -0.10048730760893147 -0.03762104797240361
0.0036603380175139954 -0.10180605610449579 -0.03809529975436546
0.003677362157174432 -0.10306144374618713 -0.038521481331987066
0.0036926294639041822 -0.10425346323646519 -0.03889961275509563
0.0037051326977571345 -0.10537858815947838 -0.03923938277161495
0.003714058455611533 -0.10643059793307796 -0.03955788229053463
0.003718842962038476 -0.10740168065956204 -0.039876574324393635
0.003719206248598144 -0.1082821003648818 -0.04022220824204758
0.003715164522496519 -0.10905976961847368 -0.040627993986028975
0.0037070218583473346 -0.10972229770225557 -0.04112797477447931
0.003695343396461056 -0.11026024180072926 -0.04174809452975598
0.003680913018392471 -0.11067010530428965 -0.04249796010779358
0.0036646790161518838 -0.11095623568211929 -0.0433656269351814
0.003647691596346039 -0.11113125717392955 -0.04431641019837451
0.0036310361855396924 -0.1112150351760178 -0.045295730169617465
0.005410766489344848 -0.006441234286124481 -0.006594884403611542
0.005892211109850776 -0.009789723064504622 -0.009378892138172987
0.006132458642509649 -0.013375839371092045 -0.01128787088511049
0.006047255650667177 -0.01709046119703271 -0.012621630899716046
0.005720055990603616 -0.020846807542045764 -0.013618601020698994
0.005325630843128663 -0.0245160259941284 -0.01463280034047931
0.005016871435172548 -0.02805417351795992 -0.015784961356342917
0.004834968294868498 -0.0315441755501716 -0.016847248303646912
0.004732241848104854 -0.03499055380986231 -0.017807237861270118
0.00464908530328423 -0.03835819975882641 -0.018761389945162563
0.004547585503985086 -0.04168143556220068 -0.0196154051816241
0.004411660012619469 -0.0449645130266921 -0.02035760182773548
0.004242349868979272 -0.04817481510274883 -0.02107759449062954
0.00405227310746894 -0.05129562031412003 -0.021821325048725512
0.003859297849485217 -0.054335328161469944 -0.022565716063613586
0.0036804214720396232 -0.05731035692935001 -0.023265658669222616
0.003527506244425096 -0.06022987846498441 -0.023895953422409372
0.003405829147614405 -0.06308848935207913 -0.024471446087429672
0.003315379723667389 -0.0658704405460373 -0.025035406808691322
0.003253134023982613 -0.06856064424689974 -0.025629288975891434
0.003214621311891553 -0.07115286634530915 -0.0262702206637196
0.0031948391851961662 -0.07365033963492489 -0.026949319844595015
0.0031888698585714084 -0.07606074506832482 -0.027645483274750044
0.0031922930777549615 -0.07839152643935313 -0.028338259298682732
0.003201436081938149 -0.08064800370322239 -0.029013031459573978
0.0032135028026517493 -0.0828331753479075 -0.029661561479420315
0.003226618152360912 -0.08494790764822455 -0.0302814692877255
0.0032398057236901635 -0.0869912198017256 -0.030875449617068142
0.003252904392775423 -0.08896065221010242 -0.03145026015826102
0.003266372004343082 -0.09085290881510723 -0.03201495675691317
0.0032809500730880004 -0.0926648845871519 -0.03257807041170468
0.0032973286136308236 -0.09439463113356238 -0.03314495428751179
0.0033159342695244357 -0.09604186612503081 -0.0337163840777326
0.0033368336138182735 -0.09760807367934281 -0.03428828220226336
0.0033597203855484335 -0.09909631771803339 -0.034852230605871684
0.0033839603409402744 -0.10051086885586673 -0.035396495870925734
0.003408672097906746 -0.10185658101177994 -0.035907741964749974
0.0034328265552422406 -0.10313752941805694 -0.03637477227866523
0.0034553512046890385 -0.104355255249487 -0.036793352469738735
0.003475228953835527 -0.10550789497416667 -0.03716860254979543
0.0034915839677176984 -0.10659051565599013 -0.03751407564939783
0.0035037495424018335 -0.10759607600457827 -0.037849117554866224
0.0035113151685979642 -0.10851580790591342 -0.03819781846147555
0.003514151750190315 -0.10933883230725848 -0.03859006832096587
0.003512415433327221 -0.11005296517082379 -0.03905934250204213
0.0035065316976985676 -0.11064736244984516 -0.039635434778324416
0.0034971622838568268 -0.1111156399998264 -0.04033588544265858
0.003485158199815951 -0.1114583168253812 -0.041159268541587954
0.0034715024876191118 -0.11168397563547057 -0.04208200327604435
0.003457246657122113 -0.11180895688163132 -0.043059194624406605

CELLS 100 350
4 0 51 52 1
4 1 52 53 2
4 2 53 54 3
4 3 54 55 4
4 4 55 56 5
4 5 56 57 6
4 6 57 58 7
4 7 58 59 8
4 8 59 60 9
4 9 60 61 10
4 10 61 62 11
4 11 62 63 12
4 12 63 64 13
4 13 64 65 14
4 14 65 66 15
4 15 66 67 16
4 16 67 68 17
4 17 68 69 18
4 18 69 70 19
4 19 70 71 20
4 20 71 72 21
4 21 72 73 22
4 22 73 74 23
4 23 74 75 24
4 24 75 76 25
4 25 76 77 26
4 26 77 78 27
4 27 78 79 28
4 28 79 80 29
4 29 80 81 30
4 30 81 82 31
4 31 82 83 32
4 32 83 84 33
4 33 84 85 34
4 34 85 86 35
4 35 86 87 36
4 36 87 88 37
4 37 88 89 38
4 38 89 90 39
4 39 90 91 40
4 40 91 92 41
4 41 92 93 42
4 42 93 94 43
4 43 94 95 44
4 44 95 96 45
4 45 96 97 46
4 46 97 98 47
4 47 98 99 48
4 48 99 100 49
4 49 100 101 50
1 102
1 103
1 104
1 105
1 106
1 107
1 108
1 109
1 110
1 111
1 112
1 113
1 114
1 115
1 116
1 117
1 118
1 119
1 120
1 121
1 122
1 123
1 124
1 125
1 126
1 127
1 128
1 129
1 130
1 131
1 132
1 133
1 134
1 135
1 136
1 137
1 138
1 139
1 140
1 141
1 142
1 143
1 144
1 145
1 146
1 147
1 148
1 149
1 150
1 151

CELL_TYPES 100
9
9
9
9
9
9
9
9
9
9
9
9
9
9
9
9
9
9
9
9
9
9
9
9
9
9
9
9
9
9
9
9
9
9
9
9
9
9
9
9
9
9
9
9
9
9
9
9
9
9
1
1
1
1
1
1
1
1
1
1
1
1
1
1
1
1
1
1
1
1
1
1
1
1
1
1
1
1
1
1
1
1
1
1
1
1
1
1
1
1
1
1
1
1
1
1
1
1
1
1

CELL_DATA 100

VECTORS S float
2.71722689194093e-18 -6.9559332892647e-19 8.9839736590038e-19
9.54070778796791e-18 1.018702573611696e-17 7.21022117144136e-18
1.45690066055948e-18 7.52898156227173e-18 3.50191059639727e-18
-3.2334136237877996e-19 -1.0009927139279599e-17 -4.27551830043897e-18
-2.1609734852518e-19 -1.386327385253406e-17 -6.00665564480409e-18
1.6669159705599998e-20 2.01385254317903e-18 8.917886161072e-19
-7.464245690466e-20 -1.9191158054087128e-17 -8.69325791600402e-18
-4.11801891673e-20 -5.234453118686143e-17 -2.425051503545902e-17
6.21064627877e-21 -3.6473173704581e-18 -1.72659309713858e-18
-1.6008557657121e-19 4.2216766150640746e-17 2.0386775655429087e-17
-1.3696298094997998e-19 2.44523779309091e-17 1.202376847512631e-17
3.5856591096697e-19 -5.047872014790472e-17 -2.5223715188402457e-17
-4.7574900984124e-19 5.679962690210547e-17 2.8779368767219316e-17
-4.9923205511699e-19 5.299898936140345e-17 2.7174655107002618e-17
5.969412943363099e-19 -5.944172614044706e-17 -3.079261938797341e-17
1.3817453634606e-18 -1.322169602612128e-16 -6.910501219401014e-17
-6.5165379897388e-19 5.969698873119649e-17 3.147988058731096e-17
9.476204524648599e-19 -8.664282643449027e-17 -4.598981268331508e-17
9.054308525676e-20 -8.2200646904859e-18 -4.3883960339904396e-18
-7.232060566825499e-19 6.377365728533721e-17 3.4218407899306206e-17
9.419743188501e-20 -8.37223554470355e-18 -4.5127778132729594e-18
-8.3746768379055e-19 7.655533770965426e-17 4.14326254330212e-17
1.0792041575839399e-18 -9.973904867725494e-17 -5.4165722212337224e-17
5.9959075535934e-19 -5.613263330985275e-17 -3.057006328843797e-17
-3.8319667833930997e-19 3.676325146387482e-17 2.006442427829089e-17
9.270553443129999e-20 -9.331609572676379e-18 -5.09585126129004e-18
6.308401091451e-20 -6.71575249224668e-18 -3.66600596752286e-18
-3.3799357112280996e-19 3.858923765086754e-17 2.103999543851265e-17
6.295663677686599e-19 -7.823734305188128e-17 -4.257243681271308e-17
1.3298378773506e-19 -1.825910155269454e-17 -9.90851275255783e-18
9.308412780244e-20 -1.413901977454623e-17 -7.64759865585829e-18
-4.2932797399853997e-19 7.349936073085542e-17 3.960158326934558e-17
-3.1406569792657e-19 6.064542744466185e-17 3.253796484720148e-17
9.67061483931e-20 -2.060456874555956e-17 -1.100536084807423e-17
1.2903785640903999e-19 -3.0097651911832916e-17 -1.6001385491333998e-17
-4.3919700879979996e-20 1.115585884039574e-17 5.90324426961846e-18
-2.2480995094607997e-19 6.114610417377953e-17 3.217080060299786e-17
1.3400986541038e-19 -3.875978197705383e-17 -2.033494308490913e-17
-2.0717775735575e-19 6.421697929239049e-17 3.353650016508118e-17
-4.662864441394e-20 1.515541929560395e-17 7.8809778556123e-18
-1.123579483926e-19 3.899149478649464e-17 2.0196304183517968e-17
-2.110960168237e-19 7.510538683091433e-17 3.876242724729124e-17
1.9764699577676998e-19 -6.382018627291478e-17 -3.283107387534494e-17
-6.198879408328999e-20 1.591800248542206e-17 8.164933031791399e-18
6.797934578825999e-20 -1.134240506198647e-17 -5.80305772894795e-18
-4.6611414428995e-19 5.853726672209224e-17 2.988245662826116e-17
5.4663457265861e-19 -5.432450446363151e-17 -2.767887096836272e-17
5.3049570301711e-19 -3.969460891910566e-17 -2.0192293488220697e-17
3.8753007591685996e-19 -2.093761876513812e-17 -1.0636805847050849e-17
5.939041397427899e-19 -1.623833074312409e-17 -8.242420168274349e-18
2.71722689194093e-18 -6.9559332892647e-19 8.9839736590038e-19
9.54070778796791e-18 1.018702573611696e-17 7.21022117144136e-18
1.45690066055948e-18 7.52898156227173e-18 3.50191059639727e-18
-3.2334136237877996e-19 -1.0009927139279599e-17 -4.27551830043897e-18
-2.1609734852518e-19 -1.386327385253406e-17 -6.00665564480409e-18
1.6669159705599998e-20 2.01385254317903e-18 8.917886161072e-19
-7.464245690466e-20 -1.9191158054087128e-17 -8.69325791600402e-18
-4.11801891673e-20 -5.234453118686143e-17 -2.425051503545902e-17
6.21064627877e-21 -3.6473173704581e-18 -1.72659309713858e-18
-1.6008557657121e-19 4.2216766150640746e-17 2.0386775655429087e-17
-1.3696298094997998e-19 2.44523779309091e-17 1.202376847512631e-17
3.5856591096697e-19 -5.047872014790472e-17 -2.5223715188402457e-17
-4.7574900984124e-19 5.679962690210547e-17 2.8779368767219316e-17
-4.9923205511699e-19 5.299898936140345e-17 2.7174655107002618e-17
5.969412943363099e-19 -5.944172614044706e-17 -3.079261938797341e-17
1.3817453634606e-18 -1.322169602612128e-16 -6.910501219401014e-17
-6.5165379897388e-19 5.969698873119649e-17 3.147988058731096e-17
9.476204524648599e-19 -8.664282643449027e-17 -4.598981268331508e-17
9.054308525676e-20 -8.2200646904859e-18 -4.3883960339904396e-18
-7.232060566825499e-19 6.377365728533721e-17 3.4218407899306206e-17
9.419743188501e-20 -8.37223554470355e-18 -4.5127778132729594e-18
-8.3746768379055e-19 7.655533770965426e-17 4.14326254330212e-17
1.0792041575839399e-18 -9.973904867725494e-17 -5.4165722212337224e-17
5.9959075535934e-19 -5.613263330985275e-17 -3.057006328843797e-17
-3.8319667833930997e-19 3.676325146387482e-17 2.006442427829089e-17
9.270553443129999e-20 -9.331609572676379e-18 -5.09585126129004e-18
6.308401091451e-20 -6.71575249224668e-18 -3.66600596752286e-18
-3.3799357112280996e-19 3.858923765086754e-17 2.103999543851265e-17
6.295663677686599e-19 -7.823734305188128e-17 -4.257243681271308e-17
1.3298378773506e-19 -1.825910155269454e-17 -9.90851275255783e-18
9.308412780244e-20 -1.413901977454623e-17 -7.64759865585829e-18
-4.2932797399853997e-19 7.349936073085542e-17 3.960158326934558e-17
-3.1406569792657e-19 6.064542744466185e-17 3.253796484720148e-17
9.67061483931e-20 -2.060456874555956e-17 -1.100536084807423e-17
1.2903785640903999e-19 -3.0097651911832916e-17 -1.6001385491333998e-17
-4.3919700879979996e-20 1.115585884039574e-17 5.90324426961846e-18
-2.2480995094607997e-19 6.114610417377953e-17 3.217080060299786e-17
1.3400986541038e-19 -3.875978197705383e-17 -2.033494308490913e-17
-2.0717775735575e-19 6.421697929239049e-17 3.353650016508118e-17
-4.662864441394e-20 1.515541929560395e-17 7.8809778556123e-18
-1.123579483926e-19 3.899149478649464e-17 2.0196304183517968e-17
-2.110960168237e-19 7.510538683091433e-17 3.876242724729124e-17
1.9764699577676998e-19 -6.382018627291478e-17 -3.283107387534494e-17
-6.198879408328999e-20 1.591800248542206e-17 8.164933031791399e-18
6.797934578825999e-20 -1.134240506198647e-17 -5.80305772894795e-18
-4.6611414428995e-19 5.853726672209224e-17 2.988245662826116e-17
5.4663457265861e-19 -5.432450446363151e-17 -2.767887096836272e-17
5.3049570301711e-19 -3.969460891910566e-17 -2.0192293488220697e-17
3.8753007591685996e-19 -2.093761876513812e-17 -1.0636805847050849e-17
5.939041397427899e-19 -1.623833074312409e-17 -8.242420168274349e-18

SCALARS Gamma float
LOOKUP_TABLE default
-1.4439883513835853e-5
0.0004377643882462894
0.003005365050013483
0.025389633323182035
0.05652120651976922
0.1011323903017355
0.1485149748395415
0.19207118919993152
0.23380527898192902
0.2645070886570776
0.28283923300308533
0.28588754576047565
0.27831626337624765
0.2529807546451903
0.24017211676032227
0.2311679823174309
0.216758368268765
0.21298278305861193
0.20836014232952085
0.20129340709945576
0.2003869367155538
0.19773745364582038
0.1905103989029194
0.18703018399617138
0.18455510517470583
0.1858218763708158
0.18688968094969655
0.18813943833169516
0.19078355245479095
0.19452023509609526
0.19555418054522208
0.20314381089392014
0.20259552959294902
0.2019503079001783
0.2010437342692209
0.1996200099551396
0.19705021257307948
0.19713944101853428
0.19498742941251856
0.19026234725728047
0.18848682124855398
0.18368428547234864
0.1833993498107221
0.1526726641611699
0.11589358884550892
0.09054901721807397
0.07257999332961183
0.055629260026509995
0.04048200127513376
0.021116207768250614
-1.4439883513835853e-5
0.0004377643882462894
0.003005365050013483
0.025389633323182035
0.05652120651976922
0.1011323903017355
0.1485149748395415
0.19207118919993152
0.23380527898192902
0.2645070886570776
0.28283923300308533
0.28588754576047565
0.27831626337624765
0.2529807546451903
0.24017211676032227
0.2311679823174309
0.216758368268765
0.21298278305861193
0.20836014232952085
0.20129340709945576
0.2003869367155538
0.19773745364582038
0.1905103989029194
0.18703018399617138
0.18455510517470583
0.1858218763708158
0.18688968094969655
0.18813943833169516
0.19078355245479095
0.19452023509609526
0.19555418054522208
0.20314381089392014
0.20259552959294902
0.2019503079001783
0.2010437342692209
0.1996200099551396
0.19705021257307948
0.19713944101853428
0.19498742941251856
0.19026234725728047
0.18848682124855398
0.18368428547234864
0.1833993498107221
0.1526726641611699
0.11589358884550892
0.09054901721807397
0.07257999332961183
0.055629260026509995
0.04048200127513376
0.021116207768250614

VECTORS Ftot float
0.006032943531219472 0.006251543368859212 -0.01340647801838417
0.01165849454224171 0.021084937961831845 -0.04521679537766294
-0.0006294147084053762 0.04798493706045444 -0.10290402960635979
-0.2613412787229043 0.10047273083498882 -0.21546446659812687
-0.7529001264858294 0.1656888720368027 -0.3553209327343448
-1.6058011370660452 0.26396306866336905 -0.5660706275075327
-2.7138981091312355 0.36938311214809394 -0.7921446403209431
-3.9457315814900813 0.4791204552217873 -1.0274771319808094
-5.315554499195903 0.5961884930514526 -1.2785303492770006
-6.57458885093264 0.7003500871984465 -1.501905608776536
-7.61374474802324 0.7824861937670647 -1.678047057736648
-8.274291353868863 0.8210059675239681 -1.7606529791347891
-8.604087937532393 0.8323395194495401 -1.7849578596731326
-8.308718324100948 0.7860118838491661 -1.6856079245172861
-8.347677645361467 0.7557830382047775 -1.6207819558338799
-8.468160817935459 0.7322537905088814 -1.5703233213156471
-8.335789034167933 0.6953615828954923 -1.491207726775859
-8.573814500407034 0.6780407733668237 -1.4540631308728014
-8.750578625240415 0.665309467176673 -1.4267607566408973
-8.789767606589757 0.6616197719027725 -1.4188481795914463
-9.081845392629475 0.6553203996214572 -1.4053391321392994
-9.282443122352728 0.6321550534313106 -1.3556608869185305
-9.2394283771519 0.6072716867206275 -1.3022983348018935
-9.352317883953113 0.5949619478724506 -1.2759000146523132
-9.49874509552989 0.5809834438075798 -1.2459230159468266
-9.827688422062808 0.5706816472020002 -1.2238307418324794
-10.140234956857048 0.5581797866988577 -1.1970204154642454
-10.457063199632163 0.5411611871336751 -1.1605239109193304
-10.847412556013177 0.5229253795704084 -1.1214170953988245
-11.298425190402082 0.5025490462571534 -1.0777199075939399
-11.587613511801022 0.47699060619807887 -1.022909656009826
-12.265770049486507 0.460861525126923 -0.9883207300312726
-12.449683241925646 0.4281449929467281 -0.9181599003557713
-12.615155331502736 0.40712883510073966 -0.8730906044125278
-12.75273084120715 0.3901866886705232 -0.8367580541446428
-12.845716917213833 0.37519720736922624 -0.8046130077591628
-12.850719521495067 0.36828431664886535 -0.7897882657686226
-13.019849374263755 0.3598507524011416 -0.7717024288748171
-13.030148953759916 0.350488160527325 -0.7516242858075108
-12.854338912339998 0.3434072749042864 -0.736439277585568
-12.864550179734424 0.3346207995517671 -0.7175966203852038
-12.654987225099113 0.3330567865365335 -0.7142425836502683
-12.744801902379761 0.38245750918227267 -0.8201827752422289
-10.693908850279575 0.41646068988074114 -0.8931028315694313
-8.1774339460738 0.5043095742659941 -1.0814953720926497
-6.432244208732114 0.5406114665441597 -1.159345031310768
-5.187495693109637 0.5634114663881392 -1.2082397887637988
-3.9987171295656707 0.5879596943005779 -1.2608836334082691
-2.925877536294486 0.6053465551490087 -1.2981698768236656
-1.537776091629331 0.6352906969620318 -1.362385296170413
0.006032943531219472 0.006251543368859212 -0.01340647801838417
0.01165849454224171 0.021084937961831845 -0.04521679537766294
-0.0006294147084053762 0.04798493706045444 -0.10290402960635979
-0.2613412787229043 0.10047273083498882 -0.21546446659812687
-0.7529001264858294 0.1656888720368027 -0.3553209327343448
-1.6058011370660452 0.26396306866336905 -0.5660706275075327
-2.7138981091312355 0.36938311214809394 -0.7921446403209431
-3.9457315814900813 0.4791204552217873 -1.0274771319808094
-5.315554499195903 0.5961884930514526 -1.2785303492770006
-6.57458885093264 0.7003500871984465 -1.501905608776536
-7.61374474802324 0.7824861937670647 -1.678047057736648
-8.274291353868863 0.8210059675239681 -1.7606529791347891
-8.604087937532393 0.8323395194495401 -1.7849578596731326
-8.308718324100948 0.7860118838491661 -1.6856079245172861
-8.347677645361467 0.7557830382047775 -1.6207819558338799
-8.468160817935459 0.7322537905088814 -1.5703233213156471
-8.335789034167933 0.6953615828954923 -1.491207726775859
-8.573814500407034 0.6780407733668237 -1.4540631308728014
-8.750578625240415 0.665309467176673 -1.4267607566408973
-8.789767606589757 0.6616197719027725 -1.4188481795914463
-9.081845392629475 0.6553203996214572 -1.4053391321392994
-9.282443122352728 0.6321550534313106 -1.3556608869185305
-9.2394283771519 0.6072716867206275 -1.3022983348018935
-9.352317883953113 0.5949619478724506 -1.2759000146523132
-9.49874509552989 0.5809834438075798 -1.2459230159468266
-9.827688422062808 0.5706816472020002 -1.2238307418324794
-10.140234956857048 0.5581797866988577 -1.1970204154642454
-10.457063199632163 0.5411611871336751 -1.1605239109193304
-10.847412556013177 0.5229253795704084 -1.1214170953988245
-11.298425190402082 0.5025490462571534 -1.0777199075939399
-11.587613511801022 0.47699060619807887 -1.022909656009826
-12.265770049486507 0.460861525126923 -0.9883207300312726
-12.449683241925646 0.4281449929467281 -0.9181599003557713
-12.615155331502736 0.40712883510073966 -0.8730906044125278
-12.75273084120715 0.3901866886705232 -0.8367580541446428
-12.845716917213833 0.37519720736922624 -0.8046130077591628
-12.850719521495067 0.36828431664886535 -0.7897882657686226
-13.019849374263755 0.3598507524011416 -0.7717024288748171
-13.030148953759916 0.350488160527325 -0.7516242858075108
-12.854338912339998 0.3434072749042864 -0.736439277585568
-12.864550179734424 0.3346207995517671 -0.7175966203852038
-12.654987225099113 0.3330567865365335 -0.7142425836502683
-12.744801902379761 0.38245750918227267 -0.8201827752422289
-10.693908850279575 0.41646068988074114 -0.8931028315694313
-8.1774339460738 0.5043095742659941 -1.0814953720926497
-6.432244208732114 0.5406114665441597 -1.159345031310768
-5.187495693109637 0.5634114663881392 -1.2082397887637988
-3.9987171295656707 0.5879596943005779 -1.2608836334082691
-2.925877536294486 0.6053465551490087 -1.2981698768236656
-1.537776091629331 0.6352906969620318 -1.362385296170413

VECTORS D float
0.00594690350133738 0.005462939057096454 -0.013756832580176938
0.014759707033267778 0.018269010138272878 -0.04534187239460727
0.028023502900091646 0.040124612535128105 -0.09792509500653981
0.040222208710029066 0.06302244061782361 -0.15059122596202404
0.04789162614185398 0.07973854861673 -0.1857583746237106
0.05574331609734688 0.09779513799991936 -0.22188462381811874
0.05692242235205777 0.10490298844270113 -0.23207164454343382
0.05715725729353693 0.11038233421650716 -0.23835639259992078
0.05796362793249117 0.11732584406771827 -0.2476348354399834
0.06103493666802302 0.12978439515641382 -0.26827717829114806
0.06632618652874352 0.14868290145749324 -0.3016164419319144
0.06909442812946638 0.16388298178075825 -0.3269870519130476
0.07302582877358464 0.18373140120175743 -0.3614093539319128
0.07247549042664732 0.19364314038546213 -0.3763326014220965
0.06803445996762118 0.19302710209620944 -0.37129844063736606
0.06390609032771742 0.19234881585322774 -0.3667385764551975
0.05969943943222595 0.18925452759106373 -0.35765771103233973
0.0552522342092681 0.18564116867344418 -0.34860149398052376
0.0533603867812398 0.18947561854694028 -0.35381274061177703
0.056120556663110464 0.21015385074860624 -0.39048260128500234
0.053833883043120964 0.2123484029479838 -0.3928311800055939
0.04844119799485017 0.20128596530480675 -0.370938287197934
0.045958131462194976 0.20146622703757527 -0.37005786685900294
0.04485986408415076 0.20807662514858827 -0.38118963739382195
0.043131056077534015 0.21262300959032523 -0.3887570050834891
0.04132623380901605 0.22030591918981768 -0.40267612781896706
0.0391241854601717 0.22506371271408157 -0.41162073722726017
0.03632084538087359 0.22725036843613525 -0.41621407605266114
0.033225527565651274 0.22816461157356202 -0.4188173533902306
0.029885569353418788 0.22753423494440067 -0.4188919679476396
0.02674251033826446 0.2291038633449375 -0.42324589674033514
0.023858363941285217 0.2319780095892022 -0.43028563351806526
0.020470148456881453 0.2285794702951161 -0.4258370421975437
0.018269710855177788 0.2373602424251063 -0.4442324705779378
0.01625772508955847 0.24939501356617416 -0.4689660435297916
0.01422097598621913 0.2620639764505122 -0.49513860750540917
0.012602758333394725 0.27960962115007915 -0.5313577989028385
0.010084361903064288 0.30092120767605945 -0.5735097929272882
0.007977392152954559 0.3121250405146275 -0.5976197404765796
0.005975080884312712 0.32408129679285747 -0.623185272033142
0.004014565396038477 0.3308238131952271 -0.6386744724138707
0.002275039645662194 0.3435168699072409 -0.6655797631280631
0.0007578170646126692 0.4087244975608216 -0.7945132677477766
-0.0010133866021404725 0.45439517129983226 -0.8858769884045156
-0.0031511054224947657 0.5528040320768982 -1.0805237091683102
-0.0051174620319041995 0.592681138292442 -1.1610932670776477
-0.006853394770011822 0.6166634963547866 -1.2104426225007765
-0.00847173483995396 0.6411629054667428 -1.2606396108356397
-0.009854452368337924 0.6572166657975616 -1.2940323523020076
-0.011300108508926916 0.6848457971311064 -1.3500238420150845
0.00594690350133738 0.005462939057096454 -0.013756832580176938
0.014759707033267778 0.018269010138272878 -0.04534187239460727
0.028023502900091646 0.040124612535128105 -0.09792509500653981
0.040222208710029066 0.06302244061782361 -0.15059122596202404
0.04789162614185398 0.07973854861673 -0.1857583746237106
0.05574331609734688 0.09779513799991936 -0.22188462381811874
0.05692242235205777 0.10490298844270113 -0.23207164454343382
0.05715725729353693 0.11038233421650716 -0.23835639259992078
0.05796362793249117 0.11732584406771827 -0.2476348354399834
0.06103493666802302 0.12978439515641382 -0.26827717829114806
0.06632618652874352 0.14868290145749324 -0.3016164419319144
0.06909442812946638 0.16388298178075825 -0.3269870519130476
0.07302582877358464 0.18373140120175743 -0.3614093539319128
0.07247549042664732 0.19364314038546213 -0.3763326014220965
0.06803445996762118 0.19302710209620944 -0.37129844063736606
0.06390609032771742 0.19234881585322774 -0.3667385764551975
0.05969943943222595 0.18925452759106373 -0.35765771103233973
0.0552522342092681 0.18564116867344418 -0.34860149398052376
0.0533603867812398 0.18947561854694028 -0.35381274061177703
0.056120556663110464 0.21015385074860624 -0.39048260128500234
0.053833883043120964 0.2123484029479838 -0.3928311800055939
0.04844119799485017 0.20128596530480675 -0.370938287197934