# vtk DataFile Version 4.0
[MyVLM domain - lattices] 
ASCII
DATASET UNSTRUCTURED_GRID
POINTS 152 float
0.0018916144324157278 -0.006084096206715622 -0.008090352031021769
0.0010688609733395774 -0.005989020274712764 -0.012347531722129363
0.00045780959861706216 -0.005912973417616411 -0.016531149224424
-0.00013255382275044122 -0.005723580794079959 -0.02060573480606865
-0.0007201482309470062 -0.005476421224944269 -0.0245861807672239
-0.0011946371146526612 -0.005027008994381024 -0.02843377227701572
-0.0014108622120167862 -0.004081874702696958 -0.03206987444679306
-0.0013224843579428829 -0.002885672723835381 -0.035560042218478756
-0.0010167791708201568 -0.0017955093629136883 -0.03899996193814109
-0.0006138083932142036 -0.0005725313476096864 -0.0423256330643518
-0.00020084691410191335 0.000672970936819371 -0.04556660781677348
0.0001698744379422134 0.0018024389250030457 -0.04876001285110155
0.0004739400232210948 0.002887027708741092 -0.0518867822179509
0.0007082255455298663 0.004005754943034092 -0.05492574320047633
0.0008836440760600275 0.005147264863713425 -0.05787993856651628
0.001017516815515788 0.006254335172844986 -0.0607647009845912
0.0011275777072549662 0.0072745557516056296 -0.063594073703715
0.0012277625198140337 0.008194829704303701 -0.06637156602651162
0.00132638558954348 0.009047829750646502 -0.06908842332412096
0.0014271324949937316 0.009881682544522017 -0.07173175009849932
0.0015306083418583354 0.01072815783676784 -0.074293033670566
0.0016355657532635378 0.011587976751328158 -0.07677208081574255
0.0017398364473795213 0.012441686723132155 -0.0791741038331304
0.0018410131526058282 0.013266786582335308 -0.08150513189301813
0.001936923789896676 0.01404673896992616 -0.0837695961673978
0.0020259353317291845 0.014772306927502555 -0.08596997169181382
0.0021071205190511294 0.015441047612265996 -0.08810691302402127
0.002180316672546981 0.016056487826642526 -0.0901794751601582
0.0022461021518325993 0.016627099064606927 -0.09218538817025541
0.0023056987632523672 0.017165024864618118 -0.09412139820298958
0.0023607022647827588 0.017683529367343926 -0.09598395114258045
0.0024126938092907785 0.01819357144485427 -0.09777011056810694
0.0024629658139780817 0.01870162530829956 -0.09947814171991969
0.0025123806343549317 0.01920885405839026 -0.10110773294612257
0.0025613283706516186 0.0197112638106178 -0.10265995440484436
0.0026097549007438213 0.020200521568775547 -0.10413703891568914
0.0026572361369983943 0.02066518523026557 -0.10554205238080773
0.002703078927872171 0.021092956930289678 -0.10687829000314143
0.0027464329900004744 0.02147610555718789 -0.10814782332781615
0.0027864017842759935 0.02181596119084576 -0.10935029596100068
0.0028221433614242725 0.0221233578117292 -0.11048280494637837
0.0028529549202113143 0.022416331586273208 -0.11154051750771837
0.002878337166053322 0.022717042547023305 -0.11251749588219591
0.0028980365508205295 0.023052757442251492 -0.11340643396663126
0.0029120651374179955 0.023457105041223714 -0.11419832095945717
0.002920699186668212 0.02396434376418492 -0.11488397734463499
0.0029244586304951574 0.024600233985559095 -0.11545650065064117
0.002924070395798875 0.025373625297493943 -0.11591351963640634
0.0029204190990956736 0.026271150952956308 -0.11625861591100346
0.0029144889643634465 0.027256058293781527 -0.11650163731950748
0.002907300946956263 0.02827118276791933 -0.11665790105747591
0.006212993241944028 0.008013899649606651 -0.004312805426422876
0.0072288922610571306 0.012032868028167876 -0.007518581305288566
0.007974780507892725 0.014574388634719168 -0.011041577107456613
0.008270023946844132 0.016182158537793843 -0.014736109642486343
0.008140225139500825 0.017108695319322544 -0.018534517028224777
0.007751519283975376 0.01772540578579291 -0.022337281110810136
0.007318662739924205 0.01848530388038332 -0.02602301717000773
0.0069707766105224795 0.01925004521550699 -0.02962879447274881
0.006702226685381192 0.019734037848317017 -0.03323113714948406
0.006460614097576536 0.020228237691471574 -0.03675208379838364
0.006208498480286784 0.020663241916815914 -0.04021023085120406
0.005928720355726676 0.020932917909624236 -0.0436340164563517
0.00562110152420414 0.02113384514986004 -0.04699756222016492
0.005297776270156929 0.021365030201099026 -0.05027433941388824
0.004977662142563614 0.021630844345179086 -0.053463176756083294
0.004680078492205027 0.021886517823607267 -0.056576070267383614
0.0044193472589770496 0.02208971610445763 -0.059624363451430705
0.0042022226504668725 0.0222355349089975 -0.06260937040575043
0.004028605706719037 0.022363047135690966 -0.06552062157875342
0.003894567528214928 0.022524855049873206 -0.06834402223592306
0.003794542923454683 0.02275535261248999 -0.07107035654319942
0.0037223892098821663 0.02305626553267019 -0.07369916209821503
0.0036720478837599236 0.023407765287482205 -0.07623575193767654
0.0036379885391020494 0.023785818635014028 -0.07868656574934575
0.003615480687410345 0.024171411393037367 -0.08105669836799549
0.003600729157216099 0.02455208384575568 -0.08334948836441135
0.0035909263662617956 0.024921606937858994 -0.08556660480893326
0.003584242976167935 0.025279324366289557 -0.08770822355743552
0.00357976601221264 0.025629279564300576 -0.08977326117524329
0.003577378730160166 0.025979081004831536 -0.0917596789781768
0.0035774796054096774 0.026337474070666504 -0.09366513364798155
0.003580588564800478 0.026711023459614257 -0.09548786617918115
0.0035870678637920984 0.027102027067668323 -0.09722726085239983
0.0035969747054953923 0.027507767490271003 -0.09888404579399432
0.0036100119296844893 0.027920728625063826 -0.10046023493752182
0.0036255480079795204 0.02832946070704938 -0.1019588962382669
0.0036426825552804717 0.028719842595394375 -0.10338381344451206
0.0036603380175139954 0.029077353201517064 -0.10473887747021597
0.003677362157174432 0.029392498787220243 -0.10602663215486177
0.0036926294639041822 0.029665299962058005 -0.10724707197613605
0.0037051326977571345 0.02990571595273597 -0.10839752836728579
0.003714058455611533 0.030131314791632655 -0.10947329398822263
0.003718842962038476 0.03036415866979093 -0.11046845729267328
0.003719206248598144 0.03063174371269164 -0.11137565071602024
0.003715164522496519 0.0309682069779983 -0.11218572726123056
0.0037070218583473346 0.03140854206136706 -0.11288931042260789
0.003695343396461056 0.03197941715629644 -0.11347925447924073
0.003680913018392471 0.032690707311341036 -0.1139529134198437
0.0036646790161518838 0.033530134498892465 -0.11431357713199905
0.003647691596346039 0.034462045616604285 -0.1145707988356882
0.0036310361855396924 0.03543033724569397 -0.11473961139666652
0.005410766489344848 0.0060083983189869 -0.006991505493535681
0.005892211109850776 0.008489972037041497 -0.010569894523098613
0.006132458642509649 0.010079135913230333 -0.014308743035040187
0.006047255650667177 0.011084069944040618 -0.018125474448178237
0.005720055990603616 0.011749859137002631 -0.021954418432668047
0.005325630843128663 0.012440405662681338 -0.025698067695782797
0.005016871435172548 0.013279812482642326 -0.029323168949192683
0.004834968294868498 0.014033883388090368 -0.0328924748779148
0.004732241848104854 0.0146898482386053 -0.036409407230762
0.00464908530328423 0.015346859801759021 -0.039847398103736054
0.004547585503985086 0.015907986167642857 -0.043232420323817786
0.004411660012619469 0.01636121947652462 -0.04656769138732529
0.004242349868979272 0.016798676088081547 -0.04982852879007334
0.00405227310746894 0.017267580430697732 -0.0530022787846134
0.003859297849485217 0.017744210817864682 -0.05609529757768852
0.0036804214720396232 0.018182199088580663 -0.05912000948059365
0.003527506244425096 0.018555642312034337 -0.06208335516272126
0.003405829147614405 0.01887980069862695 -0.06498124566301802
0.003315379723667389 0.01919915235648263 -0.06780176310833122
0.003253134023982613 0.01955630792104743 -0.0705334900133041
0.003214621311891553 0.019968873627947067 -0.073171708801319
0.0031948391851961662 0.02042771949186469 -0.07571886584456847
0.0031888698585714084 0.020911153134119523 -0.07818077359840193
0.0031922930777549615 0.021398151954551956 -0.08056306505155496
0.003201436081938149 0.021873691451725984 -0.08286976600705402
0.0032135028026517493 0.02232930336132657 -0.08510314552948361
0.003226618152360912 0.02276254116891927 -0.08726385916041073
0.0032398057236901635 0.023176174835377483 -0.08935116469105625
0.003252904392775423 0.023577150704577672 -0.09136320085418816
0.003266372004343082 0.02397477743230702 -0.09329747340300565
0.0032809500730880004 0.02437782417538006 -0.09515163264902195
0.0032973286136308236 0.024791793541875197 -0.0969242041728462
0.0033159342695244357 0.025217482880063473 -0.0986149743256531
0.0033368336138182735 0.02565070077687657 -0.10022506619318942
0.0033597203855484335 0.02608279417196662 -0.10175679835598746
0.0033839603409402744 0.02650170208829655 -0.10321340254310422
0.003408672097906746 0.026893716193911198 -0.10459855189101665
0.0034328265552422406 0.027247327306711182 -0.10591533027577386
0.0034553512046890385 0.02755818287448355 -0.10716490396022628
0.003475228953835527 0.027831545843369616 -0.10834586274220559
0.0034915839677176984 0.02808134770388854 -0.10945447369007776
0.0035037495424018335 0.028327474314695907 -0.11048540840407528
0.0035113151685979642 0.02859468839209031 -0.11143203173436347
0.003514151750190315 0.02891371431944313 -0.11228611110723011
0.003512415433327221 0.029318961990438094 -0.11303842641945093
0.0035065316976985676 0.02984105692534182 -0.11368077158760279
0.0034971622838568268 0.030498029085745688 -0.11420831549803762
0.003485158199815951 0.03128841271014385 -0.11462145090036727
0.0034715024876191118 0.03218796869915351 -0.11492667264169659
0.003457246657122113 0.03315054870607445 -0.11513634613425593

CELLS 100 350
4 0 51 52 1
4 1 52 53 2
4 2 53 54 3
4 3 54 55 4
4 4 55 56 5
4 5 56 57 6
4 6 57 58 7
4 7 58 59 8
4 8 59 60 9
4 9 60 61 10
4 10 61 62 11
4 11 62 63 12
4 12 63 64 13
4 13 64 65 14
4 14 65 66 15
4 15 66 67 16
4 16 67 68 17
4 17 68 69 18
4 18 69 70 19
4 19 70 71 20
4 20 71 72 21
4 21 72 73 22
4 22 73 74 23
4 23 74 75 24
4 24 75 76 25
4 25 76 77 26
4 26 77 78 27
4 27 78 79 28
4 28 79 80 29
4 29 80 81 30
4 30 81 82 31
4 31 82 83 32
4 32 83 84 33
4 33 84 85 34
4 34 85 86 35
4 35 86 87 36
4 36 87 88 37
4 37 88 89 38
4 38 89 90 39
4 39 90 91 40
4 40 91 92 41
4 41 92 93 42
4 42 93 94 43
4 43 94 95 44
4 44 95 96 45
4 45 96 97 46
4 46 97 98 47
4 47 98 99 48
4 48 99 100 49
4 49 100 101 50
1 102
1 103
1 104
1 105
1 106
1 107
1 108
1 109
1 110
1 111
1 112
1 113
1 114
1 115
1 116
1 117
1 118
1 119
1 120
1 121
1 122
1 123
1 124
1 125
1 126
1 127
1 128
1 129
1 130
1 131
1 132
1 133
1 134
1 135
1 136
1 137
1 138
1 139
1 140
1 141
1 142
1 143
1 144
1 145
1 146
1 147
1 148
1 149
1 150
1 151

CELL_TYPES 100
9
9
9
9
9
9
9
9
9
9
9
9
9
9
9
9
9
9
9
9
9
9
9
9
9
9
9
9
9
9
9
9
9
9
9
9
9
9
9
9
9
9
9
9
9
9
9
9
9
9
1
1
1
1
1
1
1
1
1
1
1
1
1
1
1
1
1
1
1
1
1
1
1
1
1
1
1
1
1
1
1
1
1
1
1
1
1
1
1
1
1
1
1
1
1
1
1
1
1
1

CELL_DATA 100

VECTORS S float
-2.7978373694636e-19 2.5362603110049e-19 -4.2726419339108e-19
-9.418178745661179e-18 4.4242489569460894e-18 -4.31275929775017e-18
-4.7982500021e-20 9.496208936088999e-20 -2.6090131805923e-19
-1.6755358597719998e-20 1.7365334402038e-19 -5.3063176797612e-19
2.0633640812366e-19 -4.62646208550355e-18 1.387979507438698e-17
9.66839668111e-21 -4.1608243344772e-19 1.21585055801236e-18
2.3415504859801e-19 -2.171154946749133e-17 6.177606493196037e-17
-3.6261320091829997e-20 1.508881987480806e-17 -4.18234060468554e-17
1.0742913039203999e-19 2.6746313059450498e-17 -7.23097944140302e-17
-2.5255866034627e-19 -2.731284018420571e-17 7.212046731996457e-17
-3.8277026351457997e-19 -2.84080675232118e-17 7.34587809198141e-17
4.5865992713805e-19 2.726233720693358e-17 -6.920125727839894e-17
-7.452033981754999e-19 -3.812888612219152e-17 9.525089835767285e-17
-1.8265321590624e-19 -8.42009126324302e-18 2.07502217327413e-17
9.147568002723e-20 4.0022321571417995e-18 -9.748128833987969e-18
5.5460886214547e-19 2.3561050186103587e-17 -5.680890148824603e-17
1.7096184777023e-19 7.14304438143325e-18 -1.707136552900271e-17
-1.0670499154251e-19 -4.4553228192373e-18 1.0565127541475999e-17
4.4764046567859e-19 1.859845246969561e-17 -4.3801358954685117e-17
4.6797490614918e-19 1.8928044677613358e-17 -4.4311114684641275e-17
-4.1862555675200996e-19 -1.712715663395317e-17 3.9880213790444916e-17
-1.4392016565286299e-18 -6.02585989539428e-17 1.395340592545737e-16
1.32623792712354e-18 5.622188426414587e-17 -1.2964433110631005e-16
6.3954944224188e-19 2.7459115379016578e-17 -6.30988757059709e-17
-1.3967613118989998e-19 -6.13131893347842e-18 1.404968308357008e-17
4.9007657554637e-19 2.2675841721449447e-17 -5.1932520211269365e-17
-2.2544629398782997e-19 -1.099248575643066e-17 2.5181676470082147e-17
-2.6360769815508997e-19 -1.3704714944413189e-17 3.142886166716545e-17
5.560429758439e-19 3.1234659555647856e-17 -7.17660760178508e-17
6.43492377966e-19 3.9584392518082e-17 -9.119414502760364e-17
-8.99473189276e-21 -6.0664811896049e-19 1.40140641952815e-18
-4.3518661183701e-19 -3.282546098691195e-17 7.616088129993137e-17
1.829704548315e-19 1.542806821898898e-17 -3.596729135658702e-17
-2.2076374555756e-19 -2.04121847652256e-17 4.7829884490267605e-17
1.4141071515382e-19 1.424054294423121e-17 -3.354579856661288e-17
1.1881449711008e-19 1.2968051853330919e-17 -3.072138397769557e-17
-2.7440444653247e-19 -3.205457741680464e-17 7.642533718728074e-17
2.9224056774632e-19 3.596733878767816e-17 -8.62081242694676e-17
-2.1467344728557e-19 -2.806848650715612e-17 6.761403992642843e-17
1.3481203972729999e-20 1.83215662907126e-18 -4.43433006635013e-18
8.32608191498e-20 1.193399175071471e-17 -2.901042066831294e-17
8.918792076796999e-20 1.288671323021388e-17 -3.14529992833305e-17
-3.26020698524e-20 -4.00543517370804e-18 9.812189565836489e-18
2.406161504713e-20 2.6656458671448298e-18 -6.5517147914265294e-18
3.5773624693137e-19 2.8228247693118117e-17 -6.958480340884574e-17
-1.4386979146573e-19 -8.1477211171134e-18 2.0136653027404718e-17
5.2744043875262e-19 2.3283229594575418e-17 -5.767211571800242e-17
-1.2799861895734e-19 -4.2205146135242e-18 1.0474067822271019e-17
-1.0074293578136699e-18 -2.391979792514408e-17 5.945598742793788e-17
-9.560202515779e-20 -1.14600812998591e-18 2.85175454618961e-18
-2.7978373694636e-19 2.5362603110049e-19 -4.2726419339108e-19
-9.418178745661179e-18 4.4242489569460894e-18 -4.31275929775017e-18
-4.7982500021e-20 9.496208936088999e-20 -2.6090131805923e-19
-1.6755358597719998e-20 1.7365334402038e-19 -5.3063176797612e-19
2.0633640812366e-19 -4.62646208550355e-18 1.387979507438698e-17
9.66839668111e-21 -4.1608243344772e-19 1.21585055801236e-18
2.3415504859801e-19 -2.171154946749133e-17 6.177606493196037e-17
-3.6261320091829997e-20 1.508881987480806e-17 -4.18234060468554e-17
1.0742913039203999e-19 2.6746313059450498e-17 -7.23097944140302e-17
-2.5255866034627e-19 -2.731284018420571e-17 7.212046731996457e-17
-3.8277026351457997e-19 -2.84080675232118e-17 7.34587809198141e-17
4.5865992713805e-19 2.726233720693358e-17 -6.920125727839894e-17
-7.452033981754999e-19 -3.812888612219152e-17 9.525089835767285e-17
-1.8265321590624e-19 -8.42009126324302e-18 2.07502217327413e-17
9.147568002723e-20 4.0022321571417995e-18 -9.748128833987969e-18
5.5460886214547e-19 2.3561050186103587e-17 -5.680890148824603e-17
1.7096184777023e-19 7.14304438143325e-18 -1.707136552900271e-17
-1.0670499154251e-19 -4.4553228192373e-18 1.0565127541475999e-17
4.4764046567859e-19 1.859845246969561e-17 -4.3801358954685117e-17
4.6797490614918e-19 1.8928044677613358e-17 -4.4311114684641275e-17
-4.1862555675200996e-19 -1.712715663395317e-17 3.9880213790444916e-17
-1.4392016565286299e-18 -6.02585989539428e-17 1.395340592545737e-16
1.32623792712354e-18 5.622188426414587e-17 -1.2964433110631005e-16
6.3954944224188e-19 2.7459115379016578e-17 -6.30988757059709e-17
-1.3967613118989998e-19 -6.13131893347842e-18 1.404968308357008e-17
4.9007657554637e-19 2.2675841721449447e-17 -5.1932520211269365e-17
-2.2544629398782997e-19 -1.099248575643066e-17 2.5181676470082147e-17
-2.6360769815508997e-19 -1.3704714944413189e-17 3.142886166716545e-17
5.560429758439e-19 3.1234659555647856e-17 -7.17660760178508e-17
6.43492377966e-19 3.9584392518082e-17 -9.119414502760364e-17
-8.99473189276e-21 -6.0664811896049e-19 1.40140641952815e-18
-4.3518661183701e-19 -3.282546098691195e-17 7.616088129993137e-17
1.829704548315e-19 1.542806821898898e-17 -3.596729135658702e-17
-2.2076374555756e-19 -2.04121847652256e-17 4.7829884490267605e-17
1.4141071515382e-19 1.424054294423121e-17 -3.354579856661288e-17
1.1881449711008e-19 1.2968051853330919e-17 -3.072138397769557e-17
-2.7440444653247e-19 -3.205457741680464e-17 7.642533718728074e-17
2.9224056774632e-19 3.596733878767816e-17 -8.62081242694676e-17
-2.1467344728557e-19 -2.806848650715612e-17 6.761403992642843e-17
1.3481203972729999e-20 1.83215662907126e-18 -4.43433006635013e-18
8.32608191498e-20 1.193399175071471e-17 -2.901042066831294e-17
8.918792076796999e-20 1.288671323021388e-17 -3.14529992833305e-17
-3.26020698524e-20 -4.00543517370804e-18 9.812189565836489e-18
2.406161504713e-20 2.6656458671448298e-18 -6.5517147914265294e-18
3.5773624693137e-19 2.8228247693118117e-17 -6.958480340884574e-17
-1.4386979146573e-19 -8.1477211171134e-18 2.0136653027404718e-17
5.2744043875262e-19 2.3283229594575418e-17 -5.767211571800242e-17
-1.2799861895734e-19 -4.2205146135242e-18 1.0474067822271019e-17
-1.0074293578136699e-18 -2.391979792514408e-17 5.945598742793788e-17
-9.560202515779e-20 -1.14600812998591e-18 2.85175454618961e-18

SCALARS Gamma float
LOOKUP_TABLE default
0.00010363545939031434
0.0001915043812116117
0.002919349547977104
0.025035131581099167
0.05678230574819137
0.10033517010901091
0.14743526869243317
0.19043517458569637
0.23196147299691275
0.26363637220751984
0.28192819839230243
0.2851534296974507
0.2778247090386335
0.25256227778642226
0.23987825732798293
0.23100673293672502
0.21952188185728064
0.21434859602146444
0.20909297272395178
0.20159746315042407
0.2005579705347081
0.19675249736881947
0.1893563780025841
0.18553601761039434
0.18261911997380975
0.18464828350272824
0.18537113070008826
0.18612949344194696
0.18834003521671985
0.19169476502205363
0.1930338805615981
0.20051070150358064
0.19990729265032034
0.1992824810430024
0.19846098644156204
0.19691458005708656
0.19517801748894625
0.192732024959582
0.19018206914283328
0.1848366786702066
0.18172610733485522
0.1741131864067984
0.1633560094522837
0.1546809052063078
0.12832872352122207
0.09561184628987941
0.07555748929366893
0.057490982986457204
0.0417197513492818
0.02170894990729949
0.00010363545939031434
0.0001915043812116117
0.002919349547977104
0.025035131581099167
0.05678230574819137
0.10033517010901091
0.14743526869243317
0.19043517458569637
0.23196147299691275
0.26363637220751984
0.28192819839230243
0.2851534296974507
0.2778247090386335
0.25256227778642226
0.23987825732798293
0.23100673293672502
0.21952188185728064
0.21434859602146444
0.20909297272395178
0.20159746315042407
0.2005579705347081
0.19675249736881947
0.1893563780025841
0.18553601761039434
0.18261911997380975
0.18464828350272824
0.18537113070008826
0.18612949344194696
0.18834003521671985
0.19169476502205363
0.1930338805615981
0.20051070150358064
0.19990729265032034
0.1992824810430024
0.19846098644156204
0.19691458005708656
0.19517801748894625
0.192732024959582
0.19018206914283328
0.1848366786702066
0.18172610733485522
0.1741131864067984
0.1633560094522837
0.1546809052063078
0.12832872352122207
0.09561184628987941
0.07555748929366893
0.057490982986457204
0.0417197513492818
0.02170894990729949

VECTORS Ftot float
0.0019831021530842515 0.0056550180083502115 0.00205825822927883
0.014009375179405877 0.04622220240453452 0.01682350583747834
3.8461202891859006e-6 0.103940179968751 0.03783113165289773
-0.25739958157078485 0.22138807360129475 0.08057866901240693
-0.7574558527824437 0.36742284152825494 0.1337309777057934
-1.5936683502599112 0.5825197546498453 0.212019851564596
-2.6945003735560653 0.816105794837767 0.29703821733310887
-3.9113044083599138 1.061157741301922 0.3862298316950567
-5.271811788839945 1.3241660725163364 0.48195703562113057
-6.550214285127742 1.5560681817891078 0.5663625006599681
-7.585668746503559 1.7373551735812556 0.6323455695319715
-8.248851331476846 1.8232112889408263 0.6635946399525806
-8.584378505443635 1.8486644636687135 0.6728588379211085
-8.290460545769474 1.7453089737540524 0.6352405160441709
-8.332853321372559 1.678220347076517 0.6108222528757504
-8.457524476975163 1.6262581546897499 0.5919095615397533
-8.438986660074224 1.5520469271701842 0.5648988836742744
-8.624920636515052 1.50889571989901 0.5491931286549155
-8.777129968058576 1.4792573189342302 0.538405632912489
-8.798648512882727 1.4704904867573116 0.5352147669512833
-9.085070284537137 1.4560954872550023 0.5299754156101659
-9.230709373154575 1.402486774931855 0.5104634400272006
-9.178074674133484 1.347208883519778 0.49034393294020506
-9.272364693767816 1.3198602190369095 0.4803898331215076
-9.394143914656452 1.2893769636442565 0.46929483551504714
-9.759935011024858 1.2674029351419154 0.4612969432132778
-10.052426243663097 1.2403677689122183 0.4514569474272292
-10.340326961351218 1.203149806446928 0.4379107169098266
-10.70400302169962 1.1638542834143148 0.4236083161860334
-11.130516504185515 1.1204492436004974 0.40781017367666444
-11.43539223276792 1.0650292803058146 0.3876389566532742
-12.10426685428938 1.0318202513574373 0.3755518586071802
-12.282398474803442 0.9616059032044105 0.3499959258610742
-12.446866226613327 0.9148622950444807 0.3329826438486569
-12.58765684075041 0.8764858760866244 0.319014769650268
-12.671389850912304 0.8427897091183334 0.3067503678649459
-12.730226880213504 0.824258262218801 0.30000547279563144
-12.729760292466343 0.8104646512437692 0.29498500897767216
-12.709905393109477 0.788808393457581 0.28710277575790394
-12.488497775606563 0.7716122430345623 0.280843888859961
-12.403728238432347 0.7510530183810442 0.27336094304648845
-11.996009435693335 0.7436270399451683 0.2706581079355269
-11.351953855331258 0.8525812365757661 0.31031419240745167
-10.834296263759034 0.9276696591941394 0.33764414317854075
-9.053577234374597 1.1162667592203397 0.40628787385700366
-6.790185814893645 1.1934130474856317 0.4343668264696901
-5.398309734238192 1.242111271040291 0.45209153030522736
-4.130277521029491 1.2949160943052285 0.47131091419935234
-3.0128490202572777 1.3314828019401537 0.4846201073435797
-1.5782100130504126 1.3963348978752503 0.5082243398937312
0.0019831021530842515 0.0056550180083502115 0.00205825822927883
0.014009375179405877 0.04622220240453452 0.01682350583747834
3.8461202891859006e-6 0.103940179968751 0.03783113165289773
-0.25739958157078485 0.22138807360129475 0.08057866901240693
-0.7574558527824437 0.36742284152825494 0.1337309777057934
-1.5936683502599112 0.5825197546498453 0.212019851564596
-2.6945003735560653 0.816105794837767 0.29703821733310887
-3.9113044083599138 1.061157741301922 0.3862298316950567
-5.271811788839945 1.3241660725163364 0.48195703562113057
-6.550214285127742 1.5560681817891078 0.5663625006599681
-7.585668746503559 1.7373551735812556 0.6323455695319715
-8.248851331476846 1.8232112889408263 0.6635946399525806
-8.584378505443635 1.8486644636687135 0.6728588379211085
-8.290460545769474 1.7453089737540524 0.6352405160441709
-8.332853321372559 1.678220347076517 0.6108222528757504
-8.457524476975163 1.6262581546897499 0.5919095615397533
-8.438986660074224 1.5520469271701842 0.5648988836742744
-8.624920636515052 1.50889571989901 0.5491931286549155
-8.777129968058576 1.4792573189342302 0.538405632912489
-8.798648512882727 1.4704904867573116 0.5352147669512833
-9.085070284537137 1.4560954872550023 0.5299754156101659
-9.230709373154575 1.402486774931855 0.5104634400272006
-9.178074674133484 1.347208883519778 0.49034393294020506
-9.272364693767816 1.3198602190369095 0.4803898331215076
-9.394143914656452 1.2893769636442565 0.46929483551504714
-9.759935011024858 1.2674029351419154 0.4612969432132778
-10.052426243663097 1.2403677689122183 0.4514569474272292
-10.340326961351218 1.203149806446928 0.4379107169098266
-10.70400302169962 1.1638542834143148 0.4236083161860334
-11.130516504185515 1.1204492436004974 0.40781017367666444
-11.43539223276792 1.0650292803058146 0.3876389566532742
-12.10426685428938 1.0318202513574373 0.3755518586071802
-12.282398474803442 0.9616059032044105 0.3499959258610742
-12.446866226613327 0.9148622950444807 0.3329826438486569
-12.58765684075041 0.8764858760866244 0.319014769650268
-12.671389850912304 0.8427897091183334 0.3067503678649459
-12.730226880213504 0.824258262218801 0.30000547279563144
-12.729760292466343 0.8104646512437692 0.29498500897767216
-12.709905393109477 0.788808393457581 0.28710277575790394
-12.488497775606563 0.7716122430345623 0.280843888859961
-12.403728238432347 0.7510530183810442 0.27336094304648845
-11.996009435693335 0.7436270399451683 0.2706581079355269
-11.351953855331258 0.8525812365757661 0.31031419240745167
-10.834296263759034 0.9276696591941394 0.33764414317854075
-9.053577234374597 1.1162667592203397 0.40628787385700366
-6.790185814893645 1.1934130474856317 0.4343668264696901
-5.398309734238192 1.242111271040291 0.45209153030522736
-4.130277521029491 1.2949160943052285 0.47131091419935234
-3.0128490202572777 1.3314828019401537 0.4846201073435797
-1.5782100130504126 1.3963348978752503 0.5082243398937312

VECTORS D float
0.0024691049064001283 0.005553433884291689 0.0016797101384289175
0.015347839951665661 0.046567401880040736 0.014254697497943596
0.027858800936313585 0.0982841739641538 0.030649655792151932
0.04022793208912247 0.15345466626616888 0.04894897760064405
0.047433547991525896 0.18793519920729332 0.06193807625685969
0.05502784699882558 0.22442214572895974 0.07636307015638077
0.05602438818566053 0.23462621499441766 0.08224836407886155
0.05687879997703221 0.24412183890314063 0.08802362844909405
0.058289630635440556 0.2565907841827971 0.09499569874202575
0.0612738641915354 0.2790488157617501 0.10589353116175497
0.06647485352048634 0.31365570815448457 0.12164368944873519
0.0692354087011311 0.34037650548315174 0.13455267929382078
0.07307557553587375 0.3760760283585069 0.15111475559769416
0.07246962104080733 0.39164756308790327 0.15956191101038786
0.06798860970341397 0.38647854672666654 0.15931223299459493
0.0638449508196308 0.38188950320195925 0.15900900192348064
0.05923956636747896 0.37266086063768367 0.15652296636410173
0.05491995617169748 0.36296096367932046 0.1536156086199897
0.05313613359546714 0.3685105905282931 0.15701596366501128
0.05602369492313502 0.40740240419453894 0.17461868532991418
0.053745939717060306 0.40980496482220974 0.17656107068076762
0.04850673535540765 0.38649228568166455 0.16740926724522803
0.04605863852811194 0.38552006411616163 0.16765676488938794
0.04502486741469018 0.3968812243926561 0.173169534939454
0.04340259720011247 0.4044060834958866 0.1769153772813136
0.041475698361631244 0.4191669274511503 0.18341665552181388
0.03936698863620107 0.4282927617707439 0.1873138681074223
0.036671499729348855 0.433038454023847 0.18913619987095967
0.033680919811284765 0.4357561027943435 0.18991454340583025
0.030445463593673134 0.4360457273995746 0.1894880054827308
0.027276108948982015 0.44047109146369334 0.1908484909538579
0.024460080481079508 0.447153033422694 0.19286343464829414
0.021142402217777308 0.44282050478420276 0.19005416125882224
0.018935580976086514 0.4604579877711474 0.19659536946409698
0.01691344056178454 0.4847653231219868 0.20585925625843868
0.014921824773441242 0.5104537865535075 0.21552948612825132
0.013112888316256345 0.5491941524742794 0.2303919794171937
0.011270163044307183 0.5866345774326359 0.24479106080500515
0.00918651987723822 0.611527562447281 0.25389142929301917
0.007204420133389055 0.6376020383962325 0.2634634562906899
0.005244183599008725 0.6533346310928133 0.26877675515601346
0.003515664913524642 0.6784468763281127 0.2779787012761065
0.00222297582022236 0.8127617667800161 0.33178497217926556
0.0005917472659148634 0.907719017984552 0.369318837013563
-0.0012259032935501306 1.1086510142938293 0.4497366573387667
-0.0030729127561309783 1.1915937772477425 0.4821224097854053
-0.004732657623856709 1.2426521942627948 0.5016368792792409
-0.00625654682972607 1.2945942817408447 0.5215789460234701
-0.007550578463300832 1.3285549576745297 0.5343643394051459
-0.008852255767307679 1.3867661125450634 0.5569900635064728
0.0024691049064001283 0.005553433884291689 0.0016797101384289175
0.015347839951665661 0.046567401880040736 0.014254697497943596
0.027858800936313585 0.0982841739641538 0.030649655792151932
0.04022793208912247 0.15345466626616888 0.04894897760064405
0.047433547991525896 0.18793519920729332 0.06193807625685969
0.05502784699882558 0.22442214572895974 0.07636307015638077
0.05602438818566053 0.23462621499441766 0.08224836407886155
0.05687879997703221 0.24412183890314063 0.08802362844909405
0.058289630635440556 0.2565907841827971 0.09499569874202575
0.0612738641915354 0.2790488157617501 0.10589353116175497
0.06647485352048634 0.31365570815448457 0.12164368944873519
0.0692354087011311 0.34037650548315174 0.13455267929382078
0.07307557553587375 0.3760760283585069 0.15111475559769416
0.07246962104080733 0.39164756308790327 0.15956191101038786
0.06798860970341397 0.38647854672666654 0.15931223299459493
0.0638449508196308 0.38188950320195925 0.15900900192348064
0.05923956636747896 0.37266086063768367 0.15652296636410173
0.05491995617169748 0.36296096367932046 0.1536156086199897
0.05313613359546714 0.3685105905282931 0.15701596366501128
0.05602369492313502 0.40740240419453894 0.17461868532991418
0.053745939717060306 0.40980496482220974 0.17656107068076762
0.04850673535540765 0.38649228568166455 0.16740926724522803
0.04605863852811194 0.38552006411616163 0.16765676488938794
0.04502486741469018 0.3968812243926561 0.173169534939454
0.04340259720011247 0.4044060834958866 0.1769153772813136
0.041475698361631244 0.4191669274511503 0.18341665552181388
0.03936698863620107 0.4282927617707439 0.1873138681074223