# vtk DataFile Version 4.0
[MyVLM domain - lattices] 
ASCII
DATASET UNSTRUCTURED_GRID
POINTS 152 float
0.0018916144324157278 0.003137534184564178 -0.009624235132160803
0.0010688609733395774 0.006679344945701469 -0.011988171444229517
0.00045780959861706216 0.01014998246051832 -0.0143255019237993
-0.00013255382275044122 0.013596318715432173 -0.01650744684658325
-0.0007201482309470062 0.01699867406656924 -0.018588075589747503
-0.0011946371146526612 0.020408208783063195 -0.02042682646907408
-0.0014108622120167862 0.023928836067577227 -0.02173820030666265
-0.0013224843579428829 0.02747392740085659 -0.02276020700304642
-0.0010167791708201568 0.030917036687005926 -0.02384025435147608
-0.0006138083932142036 0.034342738360428025 -0.024745976003166834
-0.00020084691410191335 0.03771198021613313 -0.025584667009507914
0.0001698744379422134 0.040975700701880675 -0.026491122877443676
0.0004739400232210948 0.04415909479023828 -0.027396120988760826
0.0007082255455298663 0.047290141471883096 -0.028222789698354775
0.0008836440760600275 0.05036481983756637 -0.028982176363592106
0.001017516815515788 0.05336286831232221 -0.029729949204174197
0.0011275777072549662 0.05626572924310549 -0.03051709495280063
0.0012277625198140337 0.05906876521157656 -0.03135635481164418
0.00132638558954348 0.06178354514774327 -0.03221594340674098
0.0014271324949937316 0.06442710999265158 -0.033049041137361006
0.0015306083418583354 0.06701070894829937 -0.033824741075028225
0.0016355657532635378 0.06953459735408024 -0.034542341680524405
0.0017398364473795213 0.07199188734250737 -0.03522076721423778
0.0018410131526058282 0.0743746115799349 -0.03588190774545366
0.001936923789896676 0.07667691443051024 -0.036541851501453504
0.0020259353317291845 0.07889552522297623 -0.03720958457766282
0.0021071205190511294 0.08102957898258915 -0.03788748347265843
0.002180316672546981 0.08308032449827088 -0.03857211716707579
0.0022461021518325993 0.08505076140157136 -0.039255244240964736
0.0023056987632523672 0.08694518954104125 -0.03992505095752531
0.0023607022647827588 0.08876830555400901 -0.04056863341175013
0.0024126938092907785 0.09052398981606254 -0.04117533035933245
0.0024629658139780817 0.09221453475024854 -0.04173884341971565
0.0025123806343549317 0.09384035219343986 -0.04225804108039109
0.0025613283706516186 0.09540002796981172 -0.04273680875750445
0.0026097549007438213 0.09689061148783903 -0.04318325313464496
0.0026572361369983943 0.09830805126710375 -0.04360850556277655
0.002703078927872171 0.09964799281436593 -0.0440245299137492
0.0027464329900004744 0.10090769865657528 -0.04443884733295484
0.0027864017842759935 0.10208763975547726 -0.044850163863632504
0.0028221433614242725 0.1031916522643777 -0.04524793976119677
0.0028529549202113143 0.10422612252481678 -0.04561462869647314
0.002878337166053322 0.10519889707873491 -0.04592867247265946
0.0028980365508205295 0.10611963068108142 -0.046163544868542176
0.0029120651374179955 0.10700023078496618 -0.04628653042557856
0.002920699186668212 0.10785282779365976 -0.046264301134694014
0.0029244586304951574 0.10868654307726408 -0.04607179623749892
0.002924070395798875 0.10950451014633694 -0.04570040648449211
0.0029204190990956736 0.11030199603214343 -0.04516313560039975
0.0029144889643634465 0.111065987158412 -0.044495738092174296
0.002907300946956263 0.11177624239714576 -0.043753826001931374
0.006212993241944028 0.008129427383971185 0.004090878713538914
0.0072288922610571306 0.013060630809059013 0.005544267372430173
0.007974780507892725 0.017404256354844914 0.005605451795401984
0.008270023946844132 0.02135281916508472 0.00480336299282655
0.008140225139500825 0.024995732005452135 0.0033836605194033755
0.007751519283975376 0.028464504569269116 0.001707664287973926
0.007318662739924205 0.03191954243795557 0.00021608501144386084
0.0069707766105224795 0.03531185989647733 -0.0012256644561190158
0.006702226685381192 0.038540333033901794 -0.0028954197765689613
0.006460614097576536 0.041707985064062175 -0.004510126996219592
0.006208498480286784 0.04479024146520261 -0.006137304058689034
0.005928720355726676 0.04774952223779092 -0.007880201164115025
0.00562110152420414 0.05062002475669838 -0.009644861797234163
0.005297776270156929 0.053436805791443644 -0.01133496827539489
0.004977662142563614 0.056201413148700925 -0.01294626803471016
0.004680078492205027 0.05889799451476281 -0.014522314949137171
0.0044193472589770496 0.06151155985386997 -0.0161042938034415
0.0042022226504668725 0.06404037263297876 -0.017696975682948684
0.004028605706719037 0.0664982679913609 -0.01926234885491475
0.003894567528214928 0.06890387161831832 -0.02074923965856079
0.003794542923454683 0.07126936191009227 -0.022124188225208785
0.0037223892098821663 0.0735953499149305 -0.023385515713595897
0.0036720478837599236 0.07587481464419141 -0.024552512131477154
0.0036379885391020494 0.07809924628001981 -0.025648558011253323
0.003615480687410345 0.08026191217985254 -0.026692151136339968
0.003600729157216099 0.08235840054138911 -0.027695412833936787
0.0035909263662617956 0.08438650574766399 -0.02866440298685255
0.003584242976167935 0.0863459954114071 -0.02959976007386437
0.00357976601221264 0.08823830125292567 -0.030497550475757123
0.003577378730160166 0.0900661173207009 -0.03135037235516183
0.0035774796054096774 0.09183254022628601 -0.0321497178417592
0.003580588564800478 0.09353989443272397 -0.03288920052582633
0.0035870678637920984 0.09518899359122446 -0.03356658491903723
0.0035969747054953923 0.09677887550875881 -0.03418451462501142
0.0036100119296844893 0.09830687884391141 -0.03475030161919369
0.0036255480079795204 0.09976894940312116 -0.03527508470684731
0.0036426825552804717 0.10116008709789233 -0.0357726015182095
0.0036603380175139954 0.10247515022410773 -0.03625697876923987
0.003677362157174432 0.10371077718855742 -0.036737452361375954
0.0036926294639041822 0.10486697528878176 -0.03721400224479058
0.0037051326977571345 0.1059472709406323 -0.037676939671559925
0.003714058455611533 0.10695788472625778 -0.038109173732694394
0.003718842962038476 0.10790662854336011 -0.03848924141565502
0.003719206248598144 0.10880323836598811 -0.03879039335158619
0.003715164522496519 0.10965980162470534 -0.03897941959795539
0.0037070218583473346 0.11048870903759388 -0.03902227693662113
0.003695343396461056 0.11129940342015197 -0.03889302144522602
0.003680913018392471 0.1120953813819847 -0.038582046267835464
0.0036646790161518838 0.11287229545390953 -0.038101295977860175
0.003647691596346039 0.11361752139621506 -0.037485455388845075
0.0036310361855396924 0.1143111938126039 -0.0367891042285456
0.005410766489344848 0.009173381713669531 0.0009116289601896181
0.005892211109850776 0.013527998612241448 0.0008919355169334582
0.006132458642509649 0.017502190966967424 4.918694928788186e-5
0.006047255650667177 0.021205080786701497 -0.0013168064874551197
0.005720055990603616 0.024723449071724524 -0.002967615954586211
0.005325630843128663 0.028186148234039313 -0.004549222359685421
0.005016871435172548 0.03163712130896657 -0.005940893205466818
0.004834968294868498 0.03499344285987498 -0.0073704642565733045
0.004732241848104854 0.038250591167665736 -0.008850358834126071
0.00464908530328423 0.04144367477054444 -0.01028411702217508
0.004547585503985086 0.044538371503374294 -0.011766038194420472
0.004411660012619469 0.04753042955944836 -0.013307804093781512
0.004242349868979272 0.05045246598831843 -0.014819800113125345
0.00405227310746894 0.05332120226623541 -0.016256084374032753
0.003859297849485217 0.05612823889253497 -0.017639734314913537
0.0036804214720396232 0.058857157582665756 -0.019015858801838856
0.003527506244425096 0.061498786489403524 -0.020409657277951923
0.003405829147614405 0.06405852902904235 -0.021806283978996935
0.003315379723667389 0.06655213424617908 -0.023162468760566077
0.003253134023982613 0.06899468994077285 -0.024436758232962246
0.003214621311891553 0.071392430222181 -0.025612024321495837
0.0031948391851961662 0.07374212229674418 -0.02669714905374767
0.0031888698585714084 0.0760360852118845 -0.02771323567348536
0.0031922930777549615 0.07826687517375777 -0.02868073583621088
0.003201436081938149 0.08042917222715143 -0.029614265998743325
0.0032135028026517493 0.08251997788409059 -0.030522064439086158
0.003226618152360912 0.08453842586975917 -0.03140651122773563
0.0032398057236901635 0.08648549698660507 -0.032264911632113126
0.003252904392775423 0.08836365083293655 -0.03309050796140587
0.003266372004343082 0.09017618346700138 -0.033874244370004816
0.0032809500730880004 0.09192619991838769 -0.0346075898592299
0.0032973286136308236 0.09361564857976955 -0.035285191264204846
0.0033159342695244357 0.09524481178045478 -0.03590627289153159
0.0033368336138182735 0.09681220540265778 -0.036474912321313856
0.0033597203855484335 0.09831476552484356 -0.03699952760878405
0.0033839603409402744 0.09974822153224791 -0.037491852171574
0.003408672097906746 0.10110771950593374 -0.037965222042359234
0.0034328265552422406 0.10238918421361709 -0.03843083382981894
0.0034553512046890385 0.10359107448050875 -0.03889292187688587
0.003475228953835527 0.10471525383851216 -0.0393463661717351
0.0034915839677176984 0.10576665522373309 -0.03977761358380411
0.0035037495424018335 0.10675231992655068 -0.04016731832677261
0.0035113151685979642 0.10768101606098263 -0.04049139020536566
0.003514151750190315 0.10856362267976599 -0.04071993926784319
0.003512415433327221 0.10941232382069045 -0.04081949014550027
0.0035065316976985676 0.11023796353052018 -0.0407602490647168
0.0034971622838568268 0.11104692595375139 -0.04052467573264694
0.003485158199815951 0.1118386920857704 -0.04011419610274735
0.0034715024876191118 0.11260467921761616 -0.03955239097408623
0.003457246657122113 0.11332854689775183 -0.03888415536828471

CELLS 100 350
4 0 51 52 1
4 1 52 53 2
4 2 53 54 3
4 3 54 55 4
4 4 55 56 5
4 5 56 57 6
4 6 57 58 7
4 7 58 59 8
4 8 59 60 9
4 9 60 61 10
4 10 61 62 11
4 11 62 63 12
4 12 63 64 13
4 13 64 65 14
4 14 65 66 15
4 15 66 67 16
4 16 67 68 17
4 17 68 69 18
4 18 69 70 19
4 19 70 71 20
4 20 71 72 21
4 21 72 73 22
4 22 73 74 23
4 23 74 75 24
4 24 75 76 25
4 25 76 77 26
4 26 77 78 27
4 27 78 79 28
4 28 79 80 29
4 29 80 81 30
4 30 81 82 31
4 31 82 83 32
4 32 83 84 33
4 33 84 85 34
4 34 85 86 35
4 35 86 87 36
4 36 87 88 37
4 37 88 89 38
4 38 89 90 39
4 39 90 91 40
4 40 91 92 41
4 41 92 93 42
4 42 93 94 43
4 43 94 95 44
4 44 95 96 45
4 45 96 97 46
4 46 97 98 47
4 47 98 99 48
4 48 99 100 49
4 49 100 101 50
1 102
1 103
1 104
1 105
1 106
1 107
1 108
1 109
1 110
1 111
1 112
1 113
1 114
1 115
1 116
1 117
1 118
1 119
1 120
1 121
1 122
1 123
1 124
1 125
1 126
1 127
1 128
1 129
1 130
1 131
1 132
1 133
1 134
1 135
1 136
1 137
1 138
1 139
1 140
1 141
1 142
1 143
1 144
1 145
1 146
1 147
1 148
1 149
1 150
1 151

CELL_TYPES 100
9
9
9
9
9
9
9
9
9
9
9
9
9
9
9
9
9
9
9
9
9
9
9
9
9
9
9
9
9
9
9
9
9
9
9
9
9
9
9
9
9
9
9
9
9
9
9
9
9
9
1
1
1
1
1
1
1
1
1
1
1
1
1
1
1
1
1
1
1
1
1
1
1
1
1
1
1
1
1
1
1
1
1
1
1
1
1
1
1
1
1
1
1
1
1
1
1
1
1
1

CELL_DATA 100

VECTORS S float
2.5726699038282097e-17 -1.5443368529834938e-17 -2.6996247920392218e-17
1.108110186669e-20 -6.300579371363e-20 5.51590647914e-21
1.543967702207e-20 9.1817614719502e-19 -2.1791324389009e-19
2.3594558538849998e-20 -7.670271111386099e-19 1.6188755354038e-19
-8.279496711252e-20 4.11558657409662e-18 -8.912117457298699e-19
1.7439043757965e-19 6.1805430492179896e-18 -1.44312875856017e-18
-4.674448200482e-20 -2.34705281596579e-18 5.355364299502e-19
7.7800283205436e-19 4.5829033394632995e-17 -1.031313930501776e-17
5.5953416552025995e-19 3.5898338303484136e-17 -7.973088167532969e-18
4.0259682423684997e-19 2.706306176681398e-17 -5.943115143675479e-18
-3.4391183984903997e-19 -2.391858431609263e-17 5.19703711833871e-18
3.7775749218444e-19 2.632472358838377e-17 -5.65138853880527e-18
2.3479935474047e-19 1.646460776161266e-17 -3.48983730903125e-18
-2.1769654859545997e-19 -1.476219078241029e-17 3.07806428929853e-18
4.072444778757e-20 2.76054456990964e-18 -5.6860168193795e-19
1.11394600266889e-18 7.59026569660556e-17 -1.543102170560395e-17
-1.41448982043601e-18 -9.490582975715844e-17 1.903702827449812e-17
4.152318149973e-19 2.803219576227566e-17 -5.54346462637463e-18
-4.3064310778943996e-19 -2.868245335075462e-17 5.590633186760629e-18
6.872971824227899e-19 4.6397822912225895e-17 -8.91001866087321e-18
1.11395363256072e-18 7.612937852130743e-17 -1.442612784673517e-17
7.3616717753379e-19 5.227483256930234e-17 -9.78104326444798e-18
-1.003739788759e-20 -7.2886668556526e-19 1.3484388410721e-19
2.6290877343755e-19 1.956119283601149e-17 -3.58345746634555e-18
-4.3908832136019e-19 -3.37670617128751e-17 6.13509370906786e-18
5.132583454967999e-19 4.09109206885379e-17 -7.38501762315495e-18
5.2093783178549996e-20 4.41240741424748e-18 -7.9770883262187e-19
-4.1068998606875e-19 -3.672591364067378e-17 6.63590815158679e-18
1.2829015221540999e-19 1.2244340125589289e-17 -2.21643382504586e-18
-9.2364479844555e-19 -9.486219781278346e-17 1.723716265850894e-17
-4.222089833093e-20 -4.6568020787838995e-18 8.507709975369599e-19
-8.366225200263599e-19 -1.0115054592666803e-16 1.860143733240406e-17
8.736637264451e-20 1.145623260798836e-17 -2.12259833599097e-18
-2.043303337996e-19 -2.881071716472692e-17 5.381303587081529e-18
-1.9731770111591e-19 -2.976182050101646e-17 5.605971699437069e-18
1.9137717966185998e-19 3.047095628581103e-17 -5.80484782545032e-18
1.1406572985161e-19 1.896602285082435e-17 -3.64689846680797e-18
3.388071744051e-20 5.831614026788649e-18 -1.1317228094838e-18
7.424098278316e-20 1.328211086335062e-17 -2.6009176651603e-18
1.9397933850255e-19 3.538576367942966e-17 -6.985776309269369e-18
-3.025730062089e-20 -5.70523239812222e-18 1.1359396877849599e-18
-1.0497644801697e-19 -1.992557146072597e-17 3.9989455673994296e-18
7.862615460652e-20 1.2291281975055149e-17 -2.4851978778616397e-18
1.4032153507836e-19 1.8012258449708968e-17 -3.66680182594372e-18
4.353853543574e-20 4.19310760040535e-18 -8.5890840782889e-19
-5.8270377916335e-19 -4.5550357087937106e-17 9.38187501957629e-18
2.8303358558104996e-19 1.866753117386364e-17 -3.86344304148708e-18
-2.0944838965215998e-19 -1.094877847841774e-17 2.27547791818272e-18
1.42858132221068e-18 5.748023232014915e-17 -1.1992050725199409e-17
5.9688128420505e-19 1.2821255416015009e-17 -2.6835542723953198e-18
2.5726699038282097e-17 -1.5443368529834938e-17 -2.6996247920392218e-17
1.108110186669e-20 -6.300579371363e-20 5.51590647914e-21
1.543967702207e-20 9.1817614719502e-19 -2.1791324389009e-19
2.3594558538849998e-20 -7.670271111386099e-19 1.6188755354038e-19
-8.279496711252e-20 4.11558657409662e-18 -8.912117457298699e-19
1.7439043757965e-19 6.1805430492179896e-18 -1.44312875856017e-18
-4.674448200482e-20 -2.34705281596579e-18 5.355364299502e-19
7.7800283205436e-19 4.5829033394632995e-17 -1.031313930501776e-17
5.5953416552025995e-19 3.5898338303484136e-17 -7.973088167532969e-18
4.0259682423684997e-19 2.706306176681398e-17 -5.943115143675479e-18
-3.4391183984903997e-19 -2.391858431609263e-17 5.19703711833871e-18
3.7775749218444e-19 2.632472358838377e-17 -5.65138853880527e-18
2.3479935474047e-19 1.646460776161266e-17 -3.48983730903125e-18
-2.1769654859545997e-19 -1.476219078241029e-17 3.07806428929853e-18
4.072444778757e-20 2.76054456990964e-18 -5.6860168193795e-19
1.11394600266889e-18 7.59026569660556e-17 -1.543102170560395e-17
-1.41448982043601e-18 -9.490582975715844e-17 1.903702827449812e-17
4.152318149973e-19 2.803219576227566e-17 -5.54346462637463e-18
-4.3064310778943996e-19 -2.868245335075462e-17 5.590633186760629e-18
6.872971824227899e-19 4.6397822912225895e-17 -8.91001866087321e-18
1.11395363256072e-18 7.612937852130743e-17 -1.442612784673517e-17
7.3616717753379e-19 5.227483256930234e-17 -9.78104326444798e-18
-1.003739788759e-20 -7.2886668556526e-19 1.3484388410721e-19
2.6290877343755e-19 1.956119283601149e-17 -3.58345746634555e-18
-4.3908832136019e-19 -3.37670617128751e-17 6.13509370906786e-18
5.132583454967999e-19 4.09109206885379e-17 -7.38501762315495e-18
5.2093783178549996e-20 4.41240741424748e-18 -7.9770883262187e-19
-4.1068998606875e-19 -3.672591364067378e-17 6.63590815158679e-18
1.2829015221540999e-19 1.2244340125589289e-17 -2.21643382504586e-18
-9.2364479844555e-19 -9.486219781278346e-17 1.723716265850894e-17
-4.222089833093e-20 -4.6568020787838995e-18 8.507709975369599e-19
-8.366225200263599e-19 -1.0115054592666803e-16 1.860143733240406e-17
8.736637264451e-20 1.145623260798836e-17 -2.12259833599097e-18
-2.043303337996e-19 -2.881071716472692e-17 5.381303587081529e-18
-1.9731770111591e-19 -2.976182050101646e-17 5.605971699437069e-18
1.9137717966185998e-19 3.047095628581103e-17 -5.80484782545032e-18
1.1406572985161e-19 1.896602285082435e-17 -3.64689846680797e-18
3.388071744051e-20 5.831614026788649e-18 -1.1317228094838e-18
7.424098278316e-20 1.328211086335062e-17 -2.6009176651603e-18
1.9397933850255e-19 3.538576367942966e-17 -6.985776309269369e-18
-3.025730062089e-20 -5.70523239812222e-18 1.1359396877849599e-18
-1.0497644801697e-19 -1.992557146072597e-17 3.9989455673994296e-18
7.862615460652e-20 1.2291281975055149e-17 -2.4851978778616397e-18
1.4032153507836e-19 1.8012258449708968e-17 -3.66680182594372e-18
4.353853543574e-20 4.19310760040535e-18 -8.5890840782889e-19
-5.8270377916335e-19 -4.5550357087937106e-17 9.38187501957629e-18
2.8303358558104996e-19 1.866753117386364e-17 -3.86344304148708e-18
-2.0944838965215998e-19 -1.094877847841774e-17 2.27547791818272e-18
1.42858132221068e-18 5.748023232014915e-17 -1.1992050725199409e-17
5.9688128420505e-19 1.2821255416015009e-17 -2.6835542723953198e-18

SCALARS Gamma float
LOOKUP_TABLE default
-0.00013268579464180487
-0.00411297586491708
0.024552292903181696
-0.004008580966396023
-0.009431524444315127
0.020919715841137873
0.06696881743059459
0.11712008206220997
0.1636577257172687
0.19677769315138852
0.2129949936252111
0.22398803613168358
0.22762725124633343
0.20480264317488858
0.18746431443873277
0.1806586897046383
0.1696753119610435
0.17068009261145056
0.1646817543093561
0.16699443140448553
0.16898702803316357
0.16969861583534407
0.1677507391193062
0.16867811477006633
0.17016710330584633
0.17191883263632826
0.1745363731591205
0.17483437892940856
0.17637406152426924
0.17848400165874326
0.17836654089519324
0.18559569602476247
0.18451256609016417
0.18332366203048764
0.1819758128597171
0.1779742224732159
0.17491424408294576
0.17130999919118103
0.16725230378820105
0.1605820710657084
0.15542795719687727
0.14555285369117224
0.13113026842486572
0.11199147108666264
0.09638968347351955
0.08058684643151977
0.06883914922533726
0.055521129985556986
0.042948675177069094
0.02364158353866908
-0.00013268579464180487
-0.00411297586491708
0.024552292903181696
-0.004008580966396023
-0.009431524444315127
0.020919715841137873
0.06696881743059459
0.11712008206220997
0.1636577257172687
0.19677769315138852
0.2129949936252111
0.22398803613168358
0.22762725124633343
0.20480264317488858
0.18746431443873277
0.1806586897046383
0.1696753119610435
0.17068009261145056
0.1646817543093561
0.16699443140448553
0.16898702803316357
0.16969861583534407
0.1677507391193062
0.16867811477006633
0.17016710330584633
0.17191883263632826
0.1745363731591205
0.17483437892940856
0.17637406152426924
0.17848400165874326
0.17836654089519324
0.18559569602476247
0.18451256609016417
0.18332366203048764
0.1819758128597171
0.1779742224732159
0.17491424408294576
0.17130999919118103
0.16725230378820105
0.1605820710657084
0.15542795719687727
0.14555285369117224
0.13113026842486572
0.11199147108666264
0.09638968347351955
0.08058684643151977
0.06883914922533726
0.055521129985556986
0.042948675177069094
0.02364158353866908

VECTORS Ftot float
0.16371854502900146 0.03624895438321501 0.13528293947940337
0.23442181620791355 0.06123627558022503 0.22853689173168648
-0.24767356723749617 0.036449299666897764 0.1360306382571642
0.08312977446661628 0.012043940412013296 0.04494859754096513
0.19269483913731839 0.020206933010732876 0.07541330066119495
-0.3079803746234476 0.06758266034711892 0.25222192212611527
-1.2170992424595255 0.1632952858643287 0.6094263034821513
-2.429051418237407 0.25747158676935245 0.9608970433285907
-3.7715025653936816 0.3435620403424938 1.2821909901102002
-4.961148718383949 0.40903555020528554 1.526541455467998
-5.8185705720292145 0.44242431093553425 1.651150006915045
-6.569484226664206 0.47419384661377467 1.7697155281991093
-7.127095835656376 0.4864138241032288 1.8153211050570992
-6.8012220058467 0.4521340124515585 1.6873871062991759
-6.577673843929488 0.4195373011849917 1.5657345236926972
-6.673168120436019 0.4059098564423972 1.5148762075359974
-6.569957560424045 0.38950775197746357 1.4536627203218135
-6.912004093519078 0.3908223909228106 1.4585690196594576
-6.950409417197099 0.38285675966044513 1.4288408790739509
-7.329989201838017 0.3832492750829081 1.4303057665733372
-7.69539378725404 0.3845752569083252 1.4352543981157064
-8.003236890960107 0.37356795354534855 1.3941745827107543
-8.171992082977129 0.36355217667290635 1.3567951945455272
-8.471133842726116 0.3599383126305632 1.3433080703278564
-8.79503113786376 0.35525200666880424 1.3258185383787593
-9.129127475515437 0.35099028497797385 1.3099135765008623
-9.508217055457798 0.3450936746512002 1.287907127168908
-9.75613990900481 0.3350021679665134 1.2502451114967363
-10.06783167179402 0.3251365141574469 1.213425990231415
-10.408224318203866 0.3148640613520529 1.1750886744433315
-10.611757058926933 0.3023847694726687 1.1285153231069887
-11.252685347322336 0.2967077147308851 1.1073282663733026
-11.386363021671302 0.281443070145845 1.0503598372224527
-11.501449171058427 0.26927720682376094 1.0049562171864967
-11.59493418307653 0.25880916291114175 0.9658889454487402
-11.5005021793991 0.24990818112986476 0.9326700292037701
-11.456174058422047 0.24399764910434793 0.9106116233847787
-11.362445324596372 0.23941274856162675 0.8935005416116932
-11.22495233144363 0.23308223324330554 0.8698747368056255
-10.898001007903783 0.22695678150888457 0.847014239713456
-10.656159433621784 0.21995914328313218 0.8208986983219619
-10.073102013430967 0.21143257661231923 0.7890771182923652
-9.151164043234557 0.2385365005015871 0.8902303393315915
-7.875367744746569 0.2553590744674108 0.9530130400861303
-6.8241940748627465 0.3008404876469454 1.122751984872184
-5.740606725348171 0.31746808593904363 1.1848070265061394
-4.930839397464049 0.3284548134646993 1.2258100518408015
-3.9956754033167874 0.3406720014637289 1.2714052181788
-3.1033286157636937 0.3483894977918063 1.3002073065824107
-1.7129577739636834 0.3643613663874804 1.3598151316732796
0.16371854502900146 0.03624895438321501 0.13528293947940337
0.23442181620791355 0.06123627558022503 0.22853689173168648
-0.24767356723749617 0.036449299666897764 0.1360306382571642
0.08312977446661628 0.012043940412013296 0.04494859754096513
0.19269483913731839 0.020206933010732876 0.07541330066119495
-0.3079803746234476 0.06758266034711892 0.25222192212611527
-1.2170992424595255 0.1632952858643287 0.6094263034821513
-2.429051418237407 0.25747158676935245 0.9608970433285907
-3.7715025653936816 0.3435620403424938 1.2821909901102002
-4.961148718383949 0.40903555020528554 1.526541455467998
-5.8185705720292145 0.44242431093553425 1.651150006915045
-6.569484226664206 0.47419384661377467 1.7697155281991093
-7.127095835656376 0.4864138241032288 1.8153211050570992
-6.8012220058467 0.4521340124515585 1.6873871062991759
-6.577673843929488 0.4195373011849917 1.5657345236926972
-6.673168120436019 0.4059098564423972 1.5148762075359974
-6.569957560424045 0.38950775197746357 1.4536627203218135
-6.912004093519078 0.3908223909228106 1.4585690196594576
-6.950409417197099 0.38285675966044513 1.4288408790739509
-7.329989201838017 0.3832492750829081 1.4303057665733372
-7.69539378725404 0.3845752569083252 1.4352543981157064
-8.003236890960107 0.37356795354534855 1.3941745827107543
-8.171992082977129 0.36355217667290635 1.3567951945455272
-8.471133842726116 0.3599383126305632 1.3433080703278564
-8.79503113786376 0.35525200666880424 1.3258185383787593
-9.129127475515437 0.35099028497797385 1.3099135765008623
-9.508217055457798 0.3450936746512002 1.287907127168908
-9.75613990900481 0.3350021679665134 1.2502451114967363
-10.06783167179402 0.3251365141574469 1.213425990231415
-10.408224318203866 0.3148640613520529 1.1750886744433315
-10.611757058926933 0.3023847694726687 1.1285153231069887
-11.252685347322336 0.2967077147308851 1.1073282663733026
-11.386363021671302 0.281443070145845 1.0503598372224527
-11.501449171058427 0.26927720682376094 1.0049562171864967
-11.59493418307653 0.25880916291114175 0.9658889454487402
-11.5005021793991 0.24990818112986476 0.9326700292037701
-11.456174058422047 0.24399764910434793 0.9106116233847787
-11.362445324596372 0.23941274856162675 0.8935005416116932
-11.22495233144363 0.23308223324330554 0.8698747368056255
-10.898001007903783 0.22695678150888457 0.847014239713456
-10.656159433621784 0.21995914328313218 0.8208986983219619
-10.073102013430967 0.21143257661231923 0.7890771182923652
-9.151164043234557 0.2385365005015871 0.8902303393315915
-7.875367744746569 0.2553590744674108 0.9530130400861303
-6.8241940748627465 0.3008404876469454 1.122751984872184
-5.740606725348171 0.31746808593904363 1.1848070265061394
-4.930839397464049 0.3284548134646993 1.2258100518408015
-3.9956754033167874 0.3406720014637289 1.2714052181788
-3.1033286157636937 0.3483894977918063 1.3002073065824107
-1.7129577739636834 0.3643613663874804 1.3598151316732796

VECTORS D float
0.1629494075396682 0.03145041717107704 0.13729500463839187
0.20314112041027285 0.05798751823846924 0.25426866260763326
-0.002371897128444355 -0.0008904195067201365 -0.0039198318670854455
0.03347322120125174 0.015477430678497363 0.0684538299684341
0.05380548134372006 0.02935966138373925 0.1305833385951445
0.04772919588317397 0.029783981315339658 0.1333246897829948
0.07139578195956832 0.049705423507834266 0.22407180230301324
0.08055606192468806 0.06135168387284069 0.27870865779379556
0.0842082037509009 0.0690147076363775 0.3166440200602498
0.08636914954275181 0.07531747333007172 0.34882268440923286
0.08371420819112832 0.07726862451315657 0.3611570160127971
0.08724114916821846 0.08459690947435422 0.3998922106577965
0.08515058904310582 0.08641163608014636 0.41340809605316686
0.08217402713604345 0.08676500935256375 0.42193096093124066
0.0748651646703354 0.08236300299877615 0.4052319760893562
0.06970301648768988 0.0797414949421211 0.39726706695749353
0.06795330818690004 0.08067718884201537 0.40725131572176265
0.0652364100701333 0.08021820763903258 0.4105340047388208
0.06424219444983788 0.08167434542187058 0.42397452696386284
0.06117282650168662 0.08085256028748111 0.4257484557436712
0.059362306811787426 0.08172269267812013 0.4358497809518746
0.05301373598997188 0.0762640456025905 0.4115836193016286
0.049923395930853924 0.07535857734463677 0.4110491021075061
0.048209547268194874 0.07672936422236151 0.4223833035255791
0.04605888199472398 0.07770032047494356 0.43095273831898673
0.04425610998588332 0.07955817976739683 0.4438057385403645
0.04195229833167149 0.08182833190122785 0.4553608753656618
0.0393187060301782 0.08306469519638655 0.46214844315918135
0.036479184038382254 0.083998296614257 0.46614684459018174
0.033563429113962505 0.08474515123153771 0.46818099628106513
0.03086523025152604 0.08595969503404283 0.47204294156386506
0.02826253728440623 0.0873375911474313 0.4761938521932073
0.025436027137832527 0.0877697592564526 0.4747638845877553
0.023282706955211455 0.09033604262799652 0.4845300948043939
0.021386972625565992 0.09405087579733853 0.5000641212651123
0.01997019870875998 0.09780747337072672 0.5140718887974831
0.018670788961045768 0.10422936372003219 0.5426381373712549
0.01736879608168645 0.11129227159978441 0.5739939444209828
0.015734611888241302 0.11658696011514896 0.5958239675477116
0.014187677403556326 0.12168311239181864 0.6167678128248899
0.012428219035069361 0.12516093819742133 0.6289491349104783
0.010707144224701969 0.12762013156640348 0.6361747131699911
0.011032116725758543 0.15694325827221425 0.7765583866036344
0.010392471653905782 0.17806352970386757 0.8750908168437442
0.010531560677349084 0.21953240103022828 1.0722697549915037
0.00926626057318814 0.237790640478035 1.1550833973364838
0.007808087200752107 0.2503258315717344 1.210105899116898
0.006447370264512289 0.2632235701766214 1.2671302711582437
0.004919931295679644 0.2720157171649274 1.3044103546407793
0.003777058966199498 0.28684454261213166 1.3713013517858519
0.1629494075396682 0.03145041717107704 0.13729500463839187
0.20314112041027285 0.05798751823846924 0.25426866260763326
-0.002371897128444355 -0.0008904195067201365 -0.0039198318670854455
0.03347322120125174 0.015477430678497363 0.0684538299684341
0.05380548134372006 0.02935966138373925 0.1305833385951445
0.04772919588317397 0.029783981315339658 0.1333246897829948
0.07139578195956832 0.049705423507834266 0.22407180230301324
0.08055606192468806 0.06135168387284069 0.27870865779379556
0.0842082037509009 0.0690147076363775 0.3166440200602498
0.08636914954275181 0.07531747333007172 0.34882268440923286
0.08371420819112832 0.07726862451315657 0.3611570160127971
0.08724114916821846 0.08459690947435422 0.3998922106577965
0.08515058904310582 0.08641163608014636 0.41340809605316686
0.08217402713604345 0.08676500935256375 0.42193096093124066
0.0748651646703354 0.08236300299877615 0.4052319760893562
0.06970301648768988 0.0797414949421211 0.39726706695749353
0.06795330818690004 0.08067718884201537 0.40725131572176265
0.0652364100701333 0.08021820763903258 0.4105340047388208
0.06424219444983788 0.08167434542187058 0.42397452696386284
0.06117282650168662 0.08085256028748111 0.4257484557436712
0.059362306811787426 0.08172269267812013 0.4358497809518746
0.05301373598997188 0.0762640456025905 0.4115836193016286
0.049923395930853924 0.07535857734463677 0.4110491021075061
0.048209547268194874 0.07672936422236151 0.4223833035255791
0.04605888199472398 0.07770032047494356 0.43095273831898673
0.04425610998588332 0.07955817976739683 0.4438057385403645
0.04195229833167149 0.08182833190122785 0.4553608753656618
0.0393187060301782 0.08306469519638655 0.46214844315918135