# vtk DataFile Version 4.0
[MyVLM domain - lattices] 
ASCII
DATASET UNSTRUCTURED_GRID
POINTS 152 float
0.0018916144324157278 -0.0096833275597394 0.0029501169483969595
0.0010688609733395774 -0.013651250016942383 0.0014047335885637737
0.00045780959861706216 -0.017556554955075847 -9.760853963822822e-5
-0.00013255382275044122 -0.021320636866661205 -0.0016691697350335324
-0.0007201482309470062 -0.024976499012535756 -0.003262816456441372
-0.0011946371146526612 -0.028438344326576083 -0.005001079612830221
-0.0014108622120167862 -0.03153190773803568 -0.0071328355176314764
-0.0013224843579428829 -0.03440246746613684 -0.009450605371639777
-0.0010167791708201568 -0.037262076813848626 -0.011651545672896765
-0.0006138083932142036 -0.03996890231423117 -0.013938215604501957
-0.00020084691410191335 -0.042588435503402376 -0.01621708355969007
0.0001698744379422134 -0.04520295384614069 -0.01837064514113797
0.0004739400232210948 -0.047770204735804955 -0.020459243324799904
0.0007082255455298663 -0.05024326669692517 -0.022549888922341728
0.0008836440760600275 -0.05262888289607441 -0.024632951693863012
0.001017516815515788 -0.05496103250725915 -0.026659904349735603
0.0011275777072549662 -0.05727083718430124 -0.02858630056208737
0.0012277625198140337 -0.05956607399512205 -0.03040103352686807
0.00132638558954348 -0.06182734155130693 -0.032131811298270176
0.0014271324949937316 -0.06402606176344226 -0.03381944761772618
0.0015306083418583354 -0.06614336943507794 -0.0354908847779431
0.0016355657532635378 -0.06817883635558868 -0.037146734327071954
0.0017398364473795213 -0.07014401365307098 -0.03877049954454606
0.0018410131526058282 -0.07205226274768971 -0.04034309834478972
0.001936923789896676 -0.0739134036889666 -0.041850506243652386
0.0020259353317291845 -0.07573292147537544 -0.043284889851496686
0.0021071205190511294 -0.07751226669145268 -0.04464417751890835
0.002180316672546981 -0.0792493450865714 -0.045931360145745774
0.0022461021518325993 -0.08093912620270638 -0.04715362197061071
0.0023056987632523672 -0.08257439908501574 -0.04832126130428725
0.0023607022647827588 -0.0841472873538351 -0.04944552678269348
0.0024126938092907785 -0.08565128352109733 -0.05053571206194133
0.0024629658139780817 -0.08708254313533549 -0.051597307587730346
0.0025123806343549317 -0.0884403755356909 -0.05263129972598919
0.0025613283706516186 -0.08972715233081222 -0.05363430146855349
0.0026097549007438213 -0.09094782173736189 -0.05459924602965984
0.0026572361369983943 -0.09210917819053763 -0.055516429950223746
0.002703078927872171 -0.0932185242857082 -0.056375424043225174
0.0027464329900004744 -0.09428045083446009 -0.05716967195024763
0.0027864017842759935 -0.09529416802202688 -0.05790030164367542
0.0028221433614242725 -0.09625324252222764 -0.05857650086547059
0.0028529549202113143 -0.0971469642786712 -0.05921356516132026
0.002878337166053322 -0.0979621744419398 -0.05983028731579145
0.0028980365508205295 -0.09868268174363676 -0.06044979085657151
0.0029120651374179955 -0.09928851708353773 -0.06110059461434226
0.002920699186668212 -0.09975933746835657 -0.061811751394416456
0.0029244586304951574 -0.10007984612958473 -0.06260510724624921
0.002924070395798875 -0.10024478809071254 -0.06348816705406826
0.0029204190990956736 -0.10026210066009247 -0.06444959516677114
0.0029144889643634465 -0.10015360793448515 -0.06545822354407022
0.002907300946956263 -0.09995325479781252 -0.06646557386765324
0.006212993241944028 -0.0013117963273390468 -0.009005668694534974
0.0072288922610571306 -0.0029496721237457705 -0.01387870354860046
0.007974780507892725 -0.005390954039985007 -0.01747188723734527
0.008270023946844132 -0.008312789307721597 -0.02024630129833843
0.008140225139500825 -0.01156523045602374 -0.022416092913307217
0.007751519283975376 -0.01492773240088625 -0.024296233104370412
0.007318662739924205 -0.018131290922654038 -0.02627089971163364
0.0069707766105224795 -0.02125805630519108 -0.028222769970943275
0.006702226685381192 -0.02447761590641908 -0.029909648035114766
0.006460614097576536 -0.027617197189383644 -0.031578278658419334
0.006208498480286784 -0.030718012249011974 -0.03316980486963299
0.005928720355726676 -0.03384308369561042 -0.034594221053467045
0.00562110152420414 -0.03693506166603791 -0.035933431302653356
0.005297776270156929 -0.03993515507057974 -0.037271397994782185
0.004977662142563614 -0.04284076819827072 -0.03861182818929454
0.004680078492205027 -0.04567848578039538 -0.03991675495519666
0.0044193472589770496 -0.04847344648629643 -0.04115027655197458
0.0042022226504668725 -0.05122856252583698 -0.042308233912917076
0.004028605706719037 -0.053920632020312734 -0.04342376275484842
0.003894567528214928 -0.056518419217377276 -0.04454147235522118
0.003794542923454683 -0.059001500638317904 -0.04569053046444966
0.0037223892098821663 -0.061368851539758504 -0.046872400567743895
0.0036720478837599236 -0.06363224629734124 -0.048070267113999865
0.0036379885391020494 -0.06580595609097939 -0.04926374874607057
0.003615480687410345 -0.06790127173264404 -0.05043672051334502
0.003600729157216099 -0.06992559192644891 -0.0515786159712907
0.0035909263662617956 -0.07188261554786592 -0.05268415257827526
0.003584242976167935 -0.07377273231622833 -0.053752773757409666
0.00357976601221264 -0.0755935412003463 -0.05478790853660179
0.003577378730160166 -0.07734052421273475 -0.055796009270673005
0.0035774796054096774 -0.07900848825744852 -0.05678449246924615
0.003580588564800478 -0.08059353515113607 -0.05775892531510469
0.0035870678637920984 -0.08209430038012647 -0.05872125653572791
0.0035969747054953923 -0.08351239756648043 -0.05966918163998618
0.0036100119296844893 -0.08485228984710631 -0.060596326607800004
0.0036255480079795204 -0.08612077620721137 -0.06149298148199776
0.0036426825552804717 -0.08732624192174732 -0.062347170848871196
0.0036603380175139954 -0.0884773097586472 -0.0631465801195841
0.003677362157174432 -0.08957961719480069 -0.06388315814275349
0.0036926294639041822 -0.09063315199204798 -0.06455692239628284
0.0037051326977571345 -0.09163200026175793 -0.06517631878843283
0.003714058455611533 -0.09256572993023388 -0.06575624586445955
0.003718842962038476 -0.09342124024732289 -0.06631541343458072
0.003719206248598144 -0.0941822037381428 -0.06687713954950443
0.003715164522496519 -0.09482834947572467 -0.06747037409317622
0.0037070218583473346 -0.09533889791225508 -0.0681247933353868
0.003695343396461056 -0.09569801320716068 -0.06886301320028608
0.003680913018392471 -0.09589983145764006 -0.06969340820897166
0.0036646790161518838 -0.0959516434795399 -0.07060556599732454
0.003647691596346039 -0.09587462044235599 -0.07156925100182891
0.0036310361855396924 -0.095702077118441 -0.07253688479675423
0.005410766489344848 -0.00451487286624203 -0.008037283274055696
0.005892211109850776 -0.007028710432901321 -0.011593080913613957
0.006132458642509649 -0.009998552733107109 -0.014365167985215359
0.006047255650667177 -0.01324139939630412 -0.016614896103301482
0.005720055990603616 -0.01661171648873023 -0.01855010926528806
0.005325630843128663 -0.01989341525440408 -0.020479414197309233
0.005016871435172548 -0.023012802110963487 -0.022508056242125252
0.004834968294868498 -0.026108945114351995 -0.02443742563283883
0.004732241848104854 -0.029189427301935997 -0.026256692669750132
0.00464908530328423 -0.03219537076660255 -0.02804994371854362
0.004547585503985086 -0.03518433464792628 -0.02973497580876601
0.004411660012619469 -0.038163449333361334 -0.03130160569178739
0.004242349868979272 -0.041078015205322886 -0.03282795251743103
0.00405227310746894 -0.04389998992494387 -0.034354064896054366
0.003859297849485217 -0.04664345966741648 -0.03585982568463402
0.0036804214720396232 -0.04933595831145448 -0.03730591242916709
0.003527506244425096 -0.051992867276977946 -0.0386703581854538
0.003405829147614405 -0.05460512489810977 -0.03996610435355434
0.003315379723667389 -0.05714631962847742 -0.04123087053077565
0.003253134023982613 -0.05959114884570073 -0.04250079260683523
0.003214621311891553 -0.06192915779061198 -0.04379080152519947
0.0031948391851961662 -0.06416576793999486 -0.04509315461460617
0.0031888698585714084 -0.06631386044571533 -0.04638945568369339
0.0031922930777549615 -0.06838591873844083 -0.04766187654583611
0.003201436081938149 -0.07039086451770261 -0.04889767569363203
0.0032135028026517493 -0.07233372632372158 -0.050089671627387866
0.003226618152360912 -0.07421595692128835 -0.05123578958396361
0.0032398057236901635 -0.0760359114798752 -0.05233837862479886
0.003252904392775423 -0.07778946519087067 -0.053403329587090306
0.003266372004343082 -0.0794710904811751 -0.054438536663342287
0.0032809500730880004 -0.08107558013758578 -0.05545143652471092
0.0032973286136308236 -0.08259966665627756 -0.05644669565027119
0.0033159342695244357 -0.0840428765638559 -0.05742499023010772
0.0033368336138182735 -0.08540769876340792 -0.05838276574223765
0.0033597203855484335 -0.0866992715288909 -0.05931268397095083
0.0033839603409402744 -0.08792475678934696 -0.06020451662156131
0.003408672097906746 -0.08909229468967868 -0.06104663836235185
0.0034328265552422406 -0.090208719497564 -0.0618292888475607
0.0034553512046890385 -0.09127661580212912 -0.06254877690137901
0.003475228953835527 -0.09229285841320903 -0.06320956575791163
0.0034915839677176984 -0.09324917467210929 -0.0638234699981835
0.0035037495424018335 -0.09413375615666017 -0.06440735379677907
0.0035113151685979642 -0.09493189851774671 -0.06498221714057731
0.003514151750190315 -0.09562535730859711 -0.06557411579986946
0.003512415433327221 -0.0961936995894792 -0.06621223103680597
0.0035065316976985676 -0.09661873961952358 -0.06692253478096055
0.0034971622838568268 -0.09688977102683743 -0.06772031731601134
0.003485158199815951 -0.09700766419529311 -0.068604335604966
0.0034715024876191118 -0.09698681254503316 -0.06955403371353772
0.003457246657122113 -0.09685461942683608 -0.07053027560093411

CELLS 100 350
4 0 51 52 1
4 1 52 53 2
4 2 53 54 3
4 3 54 55 4
4 4 55 56 5
4 5 56 57 6
4 6 57 58 7
4 7 58 59 8
4 8 59 60 9
4 9 60 61 10
4 10 61 62 11
4 11 62 63 12
4 12 63 64 13
4 13 64 65 14
4 14 65 66 15
4 15 66 67 16
4 16 67 68 17
4 17 68 69 18
4 18 69 70 19
4 19 70 71 20
4 20 71 72 21
4 21 72 73 22
4 22 73 74 23
4 23 74 75 24
4 24 75 76 25
4 25 76 77 26
4 26 77 78 27
4 27 78 79 28
4 28 79 80 29
4 29 80 81 30
4 30 81 82 31
4 31 82 83 32
4 32 83 84 33
4 33 84 85 34
4 34 85 86 35
4 35 86 87 36
4 36 87 88 37
4 37 88 89 38
4 38 89 90 39
4 39 90 91 40
4 40 91 92 41
4 41 92 93 42
4 42 93 94 43
4 43 94 95 44
4 44 95 96 45
4 45 96 97 46
4 46 97 98 47
4 47 98 99 48
4 48 99 100 49
4 49 100 101 50
1 102
1 103
1 104
1 105
1 106
1 107
1 108
1 109
1 110
1 111
1 112
1 113
1 114
1 115
1 116
1 117
1 118
1 119
1 120
1 121
1 122
1 123
1 124
1 125
1 126
1 127
1 128
1 129
1 130
1 131
1 132
1 133
1 134
1 135
1 136
1 137
1 138
1 139
1 140
1 141
1 142
1 143
1 144
1 145
1 146
1 147
1 148
1 149
1 150
1 151

CELL_TYPES 100
9
9
9
9
9
9
9
9
9
9
9
9
9
9
9
9
9
9
9
9
9
9
9
9
9
9
9
9
9
9
9
9
9
9
9
9
9
9
9
9
9
9
9
9
9
9
9
9
9
9
1
1
1
1
1
1
1
1
1
1
1
1
1
1
1
1
1
1
1
1
1
1
1
1
1
1
1
1
1
1
1
1
1
1
1
1
1
1
1
1
1
1
1
1
1
1
1
1
1
1

CELL_DATA 100

VECTORS S float
-3.52764010336394e-18 3.5362699967052e-19 -1.54445940253672e-18
9.255123861707009e-18 6.09450040797607e-18 8.13584014152978e-18
-2.7078658736378e-19 -1.18513866819199e-18 -9.9254958394301e-19
1.8651622128404e-19 4.979216006619509e-18 3.9105042438806295e-18
-6.866621368539999e-20 -3.81542666368192e-18 -3.0299021448185898e-18
4.1241082603605997e-19 4.4463229356861435e-17 3.592511811997146e-17
-2.1821646833936e-19 -5.230865376972651e-17 -4.300746987010108e-17
4.443498021244e-20 7.200296248059903e-17 6.021509544539887e-17
3.569324530554e-20 -1.564611350220638e-17 -1.330540911359552e-17
-1.6680720454917e-19 3.52696922558989e-17 3.046575811896238e-17
-1.49984239558782e-18 2.1923867967620904e-16 1.9208067696761543e-16
-8.139845694762799e-19 9.412983984622458e-17 8.35578139689202e-17
-1.50504902219599e-18 1.4864340917023714e-16 1.3340195319483226e-16
-1.2674426420559998e-19 1.1198903082215339e-17 1.014528544027094e-17
-7.618403526942399e-19 6.337423341775911e-17 5.787887483613598e-17
-1.0861064953567099e-18 8.706104520101783e-17 8.00722491001355e-17
7.0987590074536995e-19 -5.568150839623141e-17 -5.152766396241446e-17
8.8188177902184e-19 -6.874053365371462e-17 -6.395989463447611e-17
-1.5678642753067e-19 1.209625874099536e-17 1.130658730917696e-17
-4.7774648097094e-19 3.559634887852405e-17 3.341445370463914e-17
1.4273901106566e-18 -1.0735607547350121e-16 -1.0115168632683501e-16
-8.719873957388999e-20 6.749773882231659e-18 6.38048962308852e-18
-3.8898635146261997e-19 3.04777205347744e-17 2.8888106041967237e-17
8.552526143595599e-19 -6.796625009769644e-17 -6.455813256741393e-17
-1.32047920565721e-18 1.0772237963269059e-16 1.024743574905767e-16
-8.910801479904e-20 7.522979164580399e-18 7.16232325483248e-18
-9.5000286198509e-19 8.436507569481925e-17 8.032936596259747e-17
-9.690954252062799e-19 9.18951701666557e-17 8.744582309926268e-17
4.4516565703511e-19 -4.578982049125523e-17 -4.3515728574064735e-17
8.339777429709999e-20 -9.45409392308216e-18 -8.96697147366113e-18
-3.0138210642062e-19 3.758265243776732e-17 3.554564326357881e-17
6.0558522432299994e-21 -8.3752363272484e-19 -7.915675453669799e-19
2.7502403459324e-19 -4.28264370666033e-17 -4.032051019810836e-17
-6.353935037919699e-19 1.0896244980093353e-16 1.021832637611071e-16
-3.1978653632319997e-19 5.992273799723e-17 5.597240418304056e-17
-2.8344037595279996e-20 5.7739724192897994e-18 5.37215996203722e-18
4.5575606323436e-19 -9.889983925712121e-17 -9.166288958694154e-17
-6.882149637519e-20 1.58073995851443e-17 1.459598865355819e-17
-1.9721406057129e-19 4.8376460772997e-17 4.4509220726644697e-17
3.0476569862419e-19 -7.790550836842727e-17 -7.146276042612982e-17
-1.3133715416274e-19 3.549281028848348e-17 3.245562641926766e-17
7.596431117486e-20 -2.096835212425553e-17 -1.9109049706668358e-17
3.3028284846516e-19 -7.772516755726344e-17 -7.065117917044432e-17
1.2437982184667998e-19 -2.6291758786472148e-17 -2.3843809182140858e-17
-7.8497342671189e-19 1.1855169118836611e-16 1.0729412521681816e-16
3.4515787340944996e-19 -3.755244351057878e-17 -3.39259352398305e-17
1.3394379580622999e-19 -1.1379655518623179e-17 -1.0264934372856679e-17
1.59137846347103e-18 -1.0107979513827221e-16 -9.106052390690199e-17
1.41378561323564e-18 -6.467945216074504e-17 -5.820675085158615e-17
1.9038544334694397e-18 -4.3946039323969657e-17 -3.9519862170706716e-17
-3.52764010336394e-18 3.5362699967052e-19 -1.54445940253672e-18
9.255123861707009e-18 6.09450040797607e-18 8.13584014152978e-18
-2.7078658736378e-19 -1.18513866819199e-18 -9.9254958394301e-19
1.8651622128404e-19 4.979216006619509e-18 3.9105042438806295e-18
-6.866621368539999e-20 -3.81542666368192e-18 -3.0299021448185898e-18
4.1241082603605997e-19 4.4463229356861435e-17 3.592511811997146e-17
-2.1821646833936e-19 -5.230865376972651e-17 -4.300746987010108e-17
4.443498021244e-20 7.200296248059903e-17 6.021509544539887e-17
3.569324530554e-20 -1.564611350220638e-17 -1.330540911359552e-17
-1.6680720454917e-19 3.52696922558989e-17 3.046575811896238e-17
-1.49984239558782e-18 2.1923867967620904e-16 1.9208067696761543e-16
-8.139845694762799e-19 9.412983984622458e-17 8.35578139689202e-17
-1.50504902219599e-18 1.4864340917023714e-16 1.3340195319483226e-16
-1.2674426420559998e-19 1.1198903082215339e-17 1.014528544027094e-17
-7.618403526942399e-19 6.337423341775911e-17 5.787887483613598e-17
-1.0861064953567099e-18 8.706104520101783e-17 8.00722491001355e-17
7.0987590074536995e-19 -5.568150839623141e-17 -5.152766396241446e-17
8.8188177902184e-19 -6.874053365371462e-17 -6.395989463447611e-17
-1.5678642753067e-19 1.209625874099536e-17 1.130658730917696e-17
-4.7774648097094e-19 3.559634887852405e-17 3.341445370463914e-17
1.4273901106566e-18 -1.0735607547350121e-16 -1.0115168632683501e-16
-8.719873957388999e-20 6.749773882231659e-18 6.38048962308852e-18
-3.8898635146261997e-19 3.04777205347744e-17 2.8888106041967237e-17
8.552526143595599e-19 -6.796625009769644e-17 -6.455813256741393e-17
-1.32047920565721e-18 1.0772237963269059e-16 1.024743574905767e-16
-8.910801479904e-20 7.522979164580399e-18 7.16232325483248e-18
-9.5000286198509e-19 8.436507569481925e-17 8.032936596259747e-17
-9.690954252062799e-19 9.18951701666557e-17 8.744582309926268e-17
4.4516565703511e-19 -4.578982049125523e-17 -4.3515728574064735e-17
8.339777429709999e-20 -9.45409392308216e-18 -8.96697147366113e-18
-3.0138210642062e-19 3.758265243776732e-17 3.554564326357881e-17
6.0558522432299994e-21 -8.3752363272484e-19 -7.915675453669799e-19
2.7502403459324e-19 -4.28264370666033e-17 -4.032051019810836e-17
-6.353935037919699e-19 1.0896244980093353e-16 1.021832637611071e-16
-3.1978653632319997e-19 5.992273799723e-17 5.597240418304056e-17
-2.8344037595279996e-20 5.7739724192897994e-18 5.37215996203722e-18
4.5575606323436e-19 -9.889983925712121e-17 -9.166288958694154e-17
-6.882149637519e-20 1.58073995851443e-17 1.459598865355819e-17
-1.9721406057129e-19 4.8376460772997e-17 4.4509220726644697e-17
3.0476569862419e-19 -7.790550836842727e-17 -7.146276042612982e-17
-1.3133715416274e-19 3.549281028848348e-17 3.245562641926766e-17
7.596431117486e-20 -2.096835212425553e-17 -1.9109049706668358e-17
3.3028284846516e-19 -7.772516755726344e-17 -7.065117917044432e-17
1.2437982184667998e-19 -2.6291758786472148e-17 -2.3843809182140858e-17
-7.8497342671189e-19 1.1855169118836611e-16 1.0729412521681816e-16
3.4515787340944996e-19 -3.755244351057878e-17 -3.39259352398305e-17
1.3394379580622999e-19 -1.1379655518623179e-17 -1.0264934372856679e-17
1.59137846347103e-18 -1.0107979513827221e-16 -9.106052390690199e-17
1.41378561323564e-18 -6.467945216074504e-17 -5.820675085158615e-17
1.9038544334694397e-18 -4.3946039323969657e-17 -3.9519862170706716e-17

SCALARS Gamma float
LOOKUP_TABLE default
2.3905247621321382e-5
0.0003593000247644248
0.003009186326998107
0.02541911215463247
0.056553523592745424
0.10167987479607359
0.14949287759849114
0.1937845288889473
0.2362166491340613
0.2673741743572613
0.2864829140276352
0.2900553230055348
0.28210276386590893
0.2577751988630162
0.2454855619314573
0.23651755287751858
0.22509220651929293
0.21934117175293255
0.21326056347204086
0.20514861999129153
0.2043627109524347
0.20176747439019913
0.19432387224630707
0.19054958744195144
0.18768104956670043
0.18672513516236453
0.18740839266663806
0.1884333190298677
0.19095800754133302
0.19468383951009577
0.19476898124973466
0.203258205844483
0.20218426785556673
0.2011218135670605
0.19987855079877367
0.1981547415788604
0.1960096691782332
0.1935493082127387
0.19104390328333884
0.18600776137985517
0.18265423082239532
0.1755382782309232
0.16466731368481688
0.1548985656995093
0.12860673381122517
0.09596941984946164
0.07584714311532142
0.057695723780407306
0.041852333100342844
0.021767409917297892
2.3905247621321382e-5
0.0003593000247644248
0.003009186326998107
0.02541911215463247
0.056553523592745424
0.10167987479607359
0.14949287759849114
0.1937845288889473
0.2362166491340613
0.2673741743572613
0.2864829140276352
0.2900553230055348
0.28210276386590893
0.2577751988630162
0.2454855619314573
0.23651755287751858
0.22509220651929293
0.21934117175293255
0.21326056347204086
0.20514861999129153
0.2043627109524347
0.20176747439019913
0.19432387224630707
0.19054958744195144
0.18768104956670043
0.18672513516236453
0.18740839266663806
0.1884333190298677
0.19095800754133302
0.19468383951009577
0.19476898124973466
0.203258205844483
0.20218426785556673
0.2011218135670605
0.19987855079877367
0.1981547415788604
0.1960096691782332
0.1935493082127387
0.19104390328333884
0.18600776137985517
0.18265423082239532
0.1755382782309232
0.16466731368481688
0.1548985656995093
0.12860673381122517
0.09596941984946164
0.07584714311532142
0.057695723780407306
0.041852333100342844
0.021767409917297892

VECTORS Ftot float
0.0045638528440678635 0.007337217141890007 -0.008744154888491245
0.012458795391706811 0.03201731891280972 -0.038156754839575556
-0.0006122705953202729 0.07322647006061338 -0.08726790876772843
-0.262215290260715 0.15338277401849057 -0.18279447197860213
-0.754758042541661 0.2533926711568624 -0.30198162618823426
-1.6186744830600968 0.40474284730279747 -0.482353742349919
-2.73921377013743 0.566930555311987 -0.6756415260444916
-3.9921758021593305 0.7348290380974658 -0.8757351460952031
-5.386798027854112 0.9127328892417281 -1.0877526998327234
-6.66546480908914 1.0711601407128721 -1.2765589459382858
-7.734259657138033 1.1990884922544993 -1.4290180184826753
-8.418355332730282 1.2572112691813089 -1.4982860466967527
-8.744438804853035 1.2729473647642582 -1.5170395951411382
-8.488133313731153 1.2063799162097748 -1.4377075991765025
-8.553212111464589 1.162955271516258 -1.3859561228558765
-8.68394099363601 1.1274710541048845 -1.343667679275478
-8.6769196793314 1.0755689341956163 -1.2818131414103522
-8.84887841917052 1.0427269284594731 -1.242673563086304
-8.973472620484683 1.020684314365256 -1.216404198549353
-8.972215613553796 1.014435887244764 -1.2089576130804436
-9.276200385626694 1.0037103772008156 -1.1961754479531626
-9.485328448246344 0.9682873551822466 -1.1539599342019895
-9.437313513475802 0.9294144947399389 -1.1076330631154554
-9.54057696385423 0.9095395610045927 -1.083947039433785
-9.671154166674325 0.8867332122139541 -1.0567674913285847
-9.885923183306705 0.8698287559303812 -1.036621544821785
-10.179030431425671 0.8506627070035503 -1.0137803371573977
-10.484406553530949 0.8247938013472393 -0.9829509759050086
-10.868915081339383 0.7970846828950232 -0.9499285344419613
-11.320273175301336 0.7661001792283236 -0.9130026408824237
-11.554967568497018 0.7287013298133886 -0.868432427733285
-12.289332770164826 0.7032268797981854 -0.8380731604083048
-12.441072343287539 0.6547658198083564 -0.7803195180645025
-12.580198889326873 0.6237602613362295 -0.7433685323649555
-12.69579845767814 0.5985846011739869 -0.7133653489206718
-12.768561147439337 0.5760017702747589 -0.6864521790655692
-12.801175875308049 0.5642515427253438 -0.6724488031697545
-12.800372666882952 0.5549504907021927 -0.6613642410062583
-12.784018996655886 0.5401508953867338 -0.6437267701201198
-12.583926336354683 0.5282215746621602 -0.6295099592894008
-12.48297287825071 0.5145399360288416 -0.6132048172955674
-12.109151945702479 0.5096403532006176 -0.6073657218578187
-11.457111813900033 0.5845388269270122 -0.6966262470010725
-10.86271696813989 0.6360565901138292 -0.7580227263613795
-9.084113728173458 0.7653960577684248 -0.9121635016029663
-6.823692491249999 0.8181047005746784 -0.9749792160280844
-5.425377920448071 0.8513136444159826 -1.0145560941572178
-4.149799720896735 0.8873932480613625 -1.0575540914209747
-3.025888594109361 0.9124067015959715 -1.0873639645340334
-1.5842230666051884 0.9569249161155687 -1.140418706623643
0.0045638528440678635 0.007337217141890007 -0.008744154888491245
0.012458795391706811 0.03201731891280972 -0.038156754839575556
-0.0006122705953202729 0.07322647006061338 -0.08726790876772843
-0.262215290260715 0.15338277401849057 -0.18279447197860213
-0.754758042541661 0.2533926711568624 -0.30198162618823426
-1.6186744830600968 0.40474284730279747 -0.482353742349919
-2.73921377013743 0.566930555311987 -0.6756415260444916
-3.9921758021593305 0.7348290380974658 -0.8757351460952031
-5.386798027854112 0.9127328892417281 -1.0877526998327234
-6.66546480908914 1.0711601407128721 -1.2765589459382858
-7.734259657138033 1.1990884922544993 -1.4290180184826753
-8.418355332730282 1.2572112691813089 -1.4982860466967527
-8.744438804853035 1.2729473647642582 -1.5170395951411382
-8.488133313731153 1.2063799162097748 -1.4377075991765025
-8.553212111464589 1.162955271516258 -1.3859561228558765
-8.68394099363601 1.1274710541048845 -1.343667679275478
-8.6769196793314 1.0755689341956163 -1.2818131414103522
-8.84887841917052 1.0427269284594731 -1.242673563086304
-8.973472620484683 1.020684314365256 -1.216404198549353
-8.972215613553796 1.014435887244764 -1.2089576130804436
-9.276200385626694 1.0037103772008156 -1.1961754479531626
-9.485328448246344 0.9682873551822466 -1.1539599342019895
-9.437313513475802 0.9294144947399389 -1.1076330631154554
-9.54057696385423 0.9095395610045927 -1.083947039433785
-9.671154166674325 0.8867332122139541 -1.0567674913285847
-9.885923183306705 0.8698287559303812 -1.036621544821785
-10.179030431425671 0.8506627070035503 -1.0137803371573977
-10.484406553530949 0.8247938013472393 -0.9829509759050086
-10.868915081339383 0.7970846828950232 -0.9499285344419613
-11.320273175301336 0.7661001792283236 -0.9130026408824237
-11.554967568497018 0.7287013298133886 -0.868432427733285
-12.289332770164826 0.7032268797981854 -0.8380731604083048
-12.441072343287539 0.6547658198083564 -0.7803195180645025
-12.580198889326873 0.6237602613362295 -0.7433685323649555
-12.69579845767814 0.5985846011739869 -0.7133653489206718
-12.768561147439337 0.5760017702747589 -0.6864521790655692
-12.801175875308049 0.5642515427253438 -0.6724488031697545
-12.800372666882952 0.5549504907021927 -0.6613642410062583
-12.784018996655886 0.5401508953867338 -0.6437267701201198
-12.583926336354683 0.5282215746621602 -0.6295099592894008
-12.48297287825071 0.5145399360288416 -0.6132048172955674
-12.109151945702479 0.5096403532006176 -0.6073657218578187
-11.457111813900033 0.5845388269270122 -0.6966262470010725
-10.86271696813989 0.6360565901138292 -0.7580227263613795
-9.084113728173458 0.7653960577684248 -0.9121635016029663
-6.823692491249999 0.8181047005746784 -0.9749792160280844
-5.425377920448071 0.8513136444159826 -1.0145560941572178
-4.149799720896735 0.8873932480613625 -1.0575540914209747
-3.025888594109361 0.9124067015959715 -1.0873639645340334
-1.5842230666051884 0.9569249161155687 -1.140418706623643

VECTORS D float
0.004664603204693528 0.00679282638811152 -0.00909892127508489
0.015005355599919749 0.029437567333393703 -0.039121182969747974
0.028142116255641874 0.06431567727568197 -0.08447286169759861
0.04040639257495841 0.10021282303239293 -0.12952747486793956
0.048266310837141106 0.12661797892249194 -0.16053847762970053
0.05631235210992282 0.15415816598334794 -0.1914424802176786
0.05774919536896032 0.16466188426292058 -0.2005661654706978
0.057715063519558886 0.1710514877132628 -0.20457957142896893
0.058018321293951715 0.17900728456450504 -0.2103428316972322
0.06061016707652463 0.19492217493479508 -0.22532624609104013
0.06594296825636461 0.22202168963428057 -0.2528980988733651
0.06826996226125044 0.24210546621201667 -0.2720724368525155
0.07229734972435814 0.2708496601467912 -0.3009791449055374
0.07183589356315874 0.284815871608335 -0.3134973947919081
0.06766560461859189 0.28407713882741714 -0.3101584225234819
0.06368075064779112 0.28294978964134504 -0.3067821951392434
0.058809782733055184 0.2762164576832206 -0.2976731367322122
0.05431851630081282 0.2692392387298443 -0.2886143972956122
0.05258832313276374 0.27390458563179365 -0.29230531834756257
0.055859412064545325 0.3061337440720675 -0.3253249930710655
0.05341025963701771 0.3082755347111098 -0.32643068537658765
0.0480846223736074 0.292260787625773 -0.30851884869928925
0.045587387687419656 0.29218202971937995 -0.30764596898634045
0.04448754291098395 0.3015609662510919 -0.31689144575519995
0.04274901437224587 0.30787414584914324 -0.32309045154789523
0.04129047707093047 0.31788294663965916 -0.3333761109277847
0.03914582782529783 0.32460985667416314 -0.34045515177930413
0.036380708733752355 0.3278369151826613 -0.3441144661085157
0.03330425937294284 0.32941290770080556 -0.34628702063367334
0.029962628052025198 0.32889152334865335 -0.34647958286451436
0.027035500199413913 0.33132178820714964 -0.35007957242402576
0.023960413965238833 0.3366744277425344 -0.3560374483407684
0.020700412869476697 0.3319966315642843 -0.3524890847639565
0.018599098645367667 0.3446482334590586 -0.367397719636125
0.016672303051069547 0.361859432937102 -0.38730293490304263
0.014711673167520188 0.37994154274589004 -0.4082817741912655
0.012994046561096683 0.4069222511651847 -0.4389848857722348
0.01114769241237017 0.43338670187394523 -0.4693035691601773
0.009053717619901137 0.45053115831131385 -0.4896360131867885
0.007003937315959349 0.46905733679487077 -0.5113154809471258
0.005120392791814516 0.4789000719679728 -0.5236946187423606
0.003340488215396938 0.4966483963864352 -0.5449587948822678
0.00210253702181072 0.5928140365708707 -0.6521600408068927
0.0005375139738841536 0.6602644702985153 -0.7280484087029339
-0.0012185696755157903 0.8046507701460612 -0.8890856416311775
-0.0030105562457076514 0.8633121264980194 -0.955626388788333
-0.004634314672146007 0.8990299586034151 -0.9967206409600992
-0.006141602006745486 0.9355910236606589 -1.0386402203734943
-0.007439913821737293 0.9593380788305826 -1.0661990045977197
-0.008762841845438463 1.0008333506910074 -1.1133476319185693
0.004664603204693528 0.00679282638811152 -0.00909892127508489
0.015005355599919749 0.029437567333393703 -0.039121182969747974
0.028142116255641874 0.06431567727568197 -0.08447286169759861
0.04040639257495841 0.10021282303239293 -0.12952747486793956
0.048266310837141106 0.12661797892249194 -0.16053847762970053
0.05631235210992282 0.15415816598334794 -0.1914424802176786
0.05774919536896032 0.16466188426292058 -0.2005661654706978
0.057715063519558886 0.1710514877132628 -0.20457957142896893
0.058018321293951715 0.17900728456450504 -0.2103428316972322
0.06061016707652463 0.19492217493479508 -0.22532624609104013
0.06594296825636461 0.22202168963428057 -0.2528980988733651
0.06826996226125044 0.24210546621201667 -0.2720724368525155
0.07229734972435814 0.2708496601467912 -0.3009791449055374
0.07183589356315874 0.284815871608335 -0.3134973947919081
0.06766560461859189 0.28407713882741714 -0.3101584225234819
0.06368075064779112 0.28294978964134504 -0.3067821951392434
0.058809782733055184 0.2762164576832206 -0.2976731367322122
0.05431851630081282 0.2692392387298443 -0.2886143972956122
0.05258832313276374 0.27390458563179365 -0.29230531834756257
0.055859412064545325 0.3061337440720675 -0.3253249930710655
0.05341025963701771 0.3082755347111098 -0.32643068537658765
0.0480846223736074 0.292260787625773 -0.30851884869928925