# vtk DataFile Version 4.0
[MyVLM domain - lattices] 
ASCII
DATASET UNSTRUCTURED_GRID
POINTS 152 float
0.0018916144324157278 0.007970722842906229 0.006240000000000065
0.0010688609733395774 0.008980725727208488 0.010376727272727393
0.00045780959861706216 0.009990069990949106 0.014437473840445443
-0.00013255382275044122 0.010861711113996385 0.018422239703154215
-0.0007201482309470062 0.011653188525702145 0.022331024860853713
-0.0011946371146526612 0.012214919606059828 0.02616382931354393
-0.0014108622120167862 0.012243082475887755 0.029920653061224867
-0.0013224843579428829 0.011990961980962576 0.03360149610389654
-0.0010167791708201568 0.011828261772846576 0.03720635844155892
-0.0006138083932142036 0.011507702748091595 0.040735240074212045
-0.00020084691410191335 0.011143465915482712 0.04418814100185588
0.0001698744379422134 0.010878997657339738 0.04756506122449043
0.0004739400232210948 0.01064063280200749 0.05086600074211571
0.0007082255455298663 0.010346566253432013 0.054090959554731706
0.0008836440760600275 0.010008554363767424 0.05723993766233843
0.001017516815515788 0.009685838015053237 0.060312935064935874
0.0011275777072549662 0.009432676154919516 0.06330995176252405
0.0012277625198140337 0.009262627687513141 0.06623098775510293
0.00132638558954348 0.009141867324371939 0.06907604304267255
0.0014271324949937316 0.009020570687082827 0.0718451176252329
0.0015306083418583354 0.008865847309346093 0.07453821150278395
0.0016355657532635378 0.008676950628719187 0.07715532467532574
0.0017398364473795213 0.008474019422467803 0.07969645714285825
0.0018410131526058282 0.00828034861576334 0.08216160890538148
0.001936923789896676 0.008113058942477254 0.08455077996289544
0.0020259353317291845 0.007981713205622727 0.08686397031540011
0.0021071205190511294 0.00788884042216153 0.08910117996289552
0.002180316672546981 0.007830789377548976 0.09126240890538163
0.0022461021518325993 0.007798789735860479 0.09334765714285848
0.0023056987632523672 0.007780269580983623 0.09535692467532604
0.0023607022647827588 0.007761496864031408 0.09729021150278433
0.0024126938092907785 0.007731126125785683 0.09914751762523334
0.0024629658139780817 0.007682454769655479 0.10092884304267308
0.0025123806343549317 0.007614278665179835 0.10263418775510352
0.0025613283706516186 0.007530732585857786 0.1042635517625247
0.0026097549007438213 0.007440443484173503 0.10581693506493661
0.0026572361369983943 0.007355257096400433 0.10729433766233924
0.002703078927872171 0.007287905109034049 0.10869575955473258
0.0027464329900004744 0.007246391357824021 0.11002120074211666
0.0027864017842759935 0.007229338842746783 0.11127066122449142
0.0028221433614242725 0.0072255314018869615 0.11244414100185697
0.0028529549202113143 0.007216296621748486 0.11354164007421318
0.002878337166053322 0.007178692748479862 0.11456315844156015
0.0028980365508205295 0.007084491167077853 0.11550869610389784
0.0029120651374179955 0.006898876813744919 0.11637825306122623
0.002920699186668212 0.006586382762022989 0.11717182931354536
0.0029244586304951574 0.00612033990987246 0.11788942486085521
0.002924070395798875 0.005491586485336479 0.11853103970315577
0.0029204190990956736 0.004713960763228032 0.11909667384044709
0.0029144889643634465 0.0038255118951117514 0.1195863272727291
0.002907300946956263 0.0028854209800890903 0.12000000000000181
0.006212993241944028 -0.00662459645866415 0.006240000000000108
0.0072288922610571306 -0.00967690595877478 0.010376727272727447
0.007974780507892725 -0.011220007941271174 0.014437473840445506
0.008270023946844132 -0.01181677903056466 0.01842223970315428
0.008140225139500825 -0.01172864466436278 0.02233102486085378
0.007751519283975376 -0.011340113462664364 0.026163829313544003
0.007318662739924205 -0.011120179970235629 0.029920653061224944
0.0069707766105224795 -0.010925619537914558 0.0336014961038966
0.006702226685381192 -0.010460765629954715 0.03720635844155899
0.006460614097576536 -0.010026837972280584 0.04073524007421211
0.006208498480286784 -0.009551985470050463 0.04418814100185594
0.005928720355726676 -0.008926331555274085 0.04756506122449049
0.00562110152420414 -0.00824986266307406 0.050866000742115766
0.005297776270156929 -0.007625077930424563 0.05409095955473176
0.004977662142563614 -0.007056502841290218 0.05723993766233847
0.004680078492205027 -0.006497788331100566 0.06031293506493592
0.0044193472589770496 -0.005905106467343871 0.06330995176252409
0.0042022226504668725 -0.005273379967066105 0.06623098775510297
0.004028605706719037 -0.004643060071346712 0.06907604304267259
0.003894567528214928 -0.0040686046525228205 0.07184511762523292
0.003794542923454683 -0.003585620959111537 0.07453821150278399
0.0037223892098821663 -0.0031958955766682963 0.07715532467532578
0.0036720478837599236 -0.0028789005077093075 0.07969645714285828
0.0036379885391020494 -0.0026097547093450243 0.08216160890538152
0.003615480687410345 -0.0023687732516245287 0.08455077996289546
0.003600729157216099 -0.002143056887568977 0.08686397031540014
0.0035909263662617956 -0.0019261568245894968 0.08910117996289554
0.003584242976167935 -0.0017173936077632703 0.09126240890538166
0.00357976601221264 -0.0015209533072244165 0.0933476571428585
0.003577378730160166 -0.0013447127937764823 0.09535692467532607
0.0035774796054096774 -0.00119772595390438 0.09729021150278436
0.003580588564800478 -0.00108678906288113 0.09914751762523337
0.0035870678637920984 -0.0010142810776938799 0.1009288430426731
0.0035969747054953923 -0.000977388734131522 0.10263418775510355
0.0036100119296844893 -0.0009683307904527963 0.10426355176252472
0.0036255480079795204 -0.0009752535776845945 0.10581693506493664
0.0036426825552804717 -0.0009835378150819896 0.10729433766233926
0.0036603380175139954 -0.0009781501655226784 0.10869575955473261
0.003677362157174432 -0.0009492619879880471 0.11002120074211667
0.0036926294639041822 -0.0008968946190585305 0.11127066122449147
0.0037051326977571345 -0.000831358608917774 0.11244414100185697
0.003714058455611533 -0.0007708417230239146 0.1135416400742132
0.003718842962038476 -0.0007381844222512997 0.11456315844156018
0.003719206248598144 -0.00076185279036382 0.11550869610389784
0.003715164522496519 -0.0008771881100297855 0.11637825306122625
0.0037070218583473346 -0.0011204184172989233 0.11717182931354536
0.003695343396461056 -0.0015191526576747991 0.11788942486085523
0.003680913018392471 -0.0020836142337063964 0.11853103970315579
0.0036646790161518838 -0.0028010919958683287 0.1190966738404471
0.003647691596346039 -0.0036346751365436115 0.11958632727272912
0.0036310361855396924 -0.004526281122627119 0.12000000000000183
0.005410766489344848 -0.00399413233527526 0.008308363636363766
0.005892211109850776 -0.005464993247747535 0.012407100556586463
0.006132458642509649 -0.00603232247632025 0.016429856771799877
0.006047255650667177 -0.006015171430635475 0.020376632282004016
0.005720055990603616 -0.005667270781164931 0.02424742708719887
0.005325630843128663 -0.00536535977709405 0.02804224118738445
0.005016871435172548 -0.0052379192584500285 0.03176107458256076
0.004834968294868498 -0.005042491468724832 0.03540392727272778
0.004732241848104854 -0.004765855785720967 0.03897079925788553
0.00464908530328423 -0.004510662707927353 0.04246169053803401
0.004547585503985086 -0.004176560937893898 0.045876601113173196
0.004411660012619469 -0.00375111902446215 0.04921553098330311
0.004242349868979272 -0.003329702840632043 0.052478480148423746
0.00405227310746894 -0.0029612027122431143 0.05566544860853511
0.003859297849485217 -0.00262106014229396 0.058776436363637184
0.0036804214720396232 -0.002261271278170071 0.06181144341373
0.003527506244425096 -0.0018550194325996576 0.06477046975881352
0.003405829147614405 -0.0014181031379191717 0.06765351539888778
0.003315379723667389 -0.0009965695200192272 0.07046058033395275
0.003253134023982613 -0.0006345323548092691 0.07319166456400845
0.003214621311891553 -0.0003502189586592777 0.07584676808905488
0.0031948391851961662 -0.00013417727524322716 0.07842589090909202
0.0031888698585714084 3.605029838351811e-5 0.0809290330241199
0.0031922930777549615 0.00018222795941649327 0.08335619443413848
0.003201436081938149 0.0003199102163149335 0.0857073751391478
0.0032135028026517493 0.0004578640614136047 0.08798257513914784
0.003226618152360912 0.0005986223128315265 0.0901817944341386
0.0032398057236901635 0.0007393172960557987 0.09230503302412008
0.003252904392775423 0.0008727576267301764 0.09435229090909228
0.003266372004343082 0.0009893062752465555 0.0963235680890552
0.0032809500730880004 0.0010798847424325698 0.09821886456400886
0.0032973286136308236 0.0011387963092145156 0.10003818033395323
0.0033159342695244357 0.0011652154999198892 0.10178151539888833
0.0033368336138182735 0.0011634815846605832 0.10344886975881416
0.0033597203855484335 0.0011425528707023895 0.10504024341373067
0.0033839603409402744 0.0011149158002842728 0.10655563636363795
0.003408672097906746 0.0010947622829525605 0.10799504860853594
0.0034328265552422406 0.001094007500790737 0.10935848014842464
0.0034553512046890385 0.0011171575474288847 0.11064593098330407
0.003475228953835527 0.001158763820088104 0.1118574011131742
0.0034915839677176984 0.0012044033784762973 0.11299289053803509
0.0035037495424018335 0.0012334888668003386 0.11405239925788668
0.0035113151685979642 0.0012203840347140445 0.11503592727272902
0.003514151750190315 0.001133280659955245 0.11594347458256204
0.003512415433327221 0.0009365549992227228 0.11677504118738583
0.0035065316976985676 0.000598501180871785 0.1175306270872003
0.0034971622838568268 0.00010045321513316899 0.11821023228200553
0.003485158199815951 -0.0005560714300199577 0.11881385677180145
0.0034715024876191118 -0.0013459785923620041 0.1193415005565881
0.003457246657122113 -0.002221491987788919 0.11979316363636547

CELLS 100 350
4 0 51 52 1
4 1 52 53 2
4 2 53 54 3
4 3 54 55 4
4 4 55 56 5
4 5 56 57 6
4 6 57 58 7
4 7 58 59 8
4 8 59 60 9
4 9 60 61 10
4 10 61 62 11
4 11 62 63 12
4 12 63 64 13
4 13 64 65 14
4 14 65 66 15
4 15 66 67 16
4 16 67 68 17
4 17 68 69 18
4 18 69 70 19
4 19 70 71 20
4 20 71 72 21
4 21 72 73 22
4 22 73 74 23
4 23 74 75 24
4 24 75 76 25
4 25 76 77 26
4 26 77 78 27
4 27 78 79 28
4 28 79 80 29
4 29 80 81 30
4 30 81 82 31
4 31 82 83 32
4 32 83 84 33
4 33 84 85 34
4 34 85 86 35
4 35 86 87 36
4 36 87 88 37
4 37 88 89 38
4 38 89 90 39
4 39 90 91 40
4 40 91 92 41
4 41 92 93 42
4 42 93 94 43
4 43 94 95 44
4 44 95 96 45
4 45 96 97 46
4 46 97 98 47
4 47 98 99 48
4 48 99 100 49
4 49 100 101 50
1 102
1 103
1 104
1 105
1 106
1 107
1 108
1 109
1 110
1 111
1 112
1 113
1 114
1 115
1 116
1 117
1 118
1 119
1 120
1 121
1 122
1 123
1 124
1 125
1 126
1 127
1 128
1 129
1 130
1 131
1 132
1 133
1 134
1 135
1 136
1 137
1 138
1 139
1 140
1 141
1 142
1 143
1 144
1 145
1 146
1 147
1 148
1 149
1 150
1 151

CELL_TYPES 100
9
9
9
9
9
9
9
9
9
9
9
9
9
9
9
9
9
9
9
9
9
9
9
9
9
9
9
9
9
9
9
9
9
9
9
9
9
9
9
9
9
9
9
9
9
9
9
9
9
9
1
1
1
1
1
1
1
1
1
1
1
1
1
1
1
1
1
1
1
1
1
1
1
1
1
1
1
1
1
1
1
1
1
1
1
1
1
1
1
1
1
1
1
1
1
1
1
1
1
1

CELL_DATA 100

VECTORS S float
1.3669674914799998e-21 1.5951145995399999e-21 -1.471658805508e-20
4.1226643227785995e-19 1.9382884759019998e-20 2.42985593425542e-18
-4.0492653438488e-19 -2.2414250886731997e-19 1.4381448748097699e-18
-3.96562254141e-21 -1.744190824754e-20 2.3222057388125e-19
1.783934035159e-20 3.1685826739031e-19 -4.01187450804881e-18
1.47692551953e-21 1.9725561815862e-19 -2.29721519870483e-18
-1.7471832353209998e-20 9.2075465847211e-19 -9.913990544448159e-18
-3.174000547031e-20 8.6855615132639e-19 -8.70057759277362e-18
6.336793183812999e-20 -1.2729096652353e-18 1.1864813412534909e-17
-9.719191247807e-20 1.66877201244327e-18 -1.4699262591751158e-17
8.904570414855e-20 -1.38153227504082e-18 1.1598431522583699e-17
4.5693144102459995e-20 -6.662933200433e-19 5.3723852951786995e-18
5.7874264640784e-19 -8.05983911594186e-18 6.286996867730154e-17
1.4210277868649e-19 -1.92061183512156e-18 1.4582071300153038e-17
7.521063622451599e-19 -1.019105128998045e-17 7.565488245322403e-17
1.8387341662917998e-19 -2.52469436698477e-18 1.839297522521764e-17
2.6088328958042e-19 -3.6178191608274895e-18 2.577941408070994e-17
-3.5995908127622996e-19 5.1276126937375095e-18 -3.59839201090494e-17
-2.0494538103671998e-19 2.9738161306707897e-18 -2.059649586516211e-17
-4.4496145043428e-19 6.56681565917048e-18 -4.5149900373295245e-17
1.9038280084829998e-20 -2.9034800677424998e-19 1.9777823559989e-18
-1.0848828735528e-19 1.7336707793490599e-18 -1.1717376505982939e-17
-3.602178300939e-19 5.91674001825258e-18 -3.974563435641033e-17
5.3127412334989995e-20 -8.947909999822499e-19 5.983892605877429e-18
9.555887145161e-20 -1.66316641065637e-18 1.109147990843272e-17
-2.8538230370787e-19 5.1515263255379e-18 -3.43227727910731e-17
2.9756446236912997e-19 -5.64250947652915e-18 3.763002171227732e-17
-1.6109760462253e-19 3.2412399120952297e-18 -2.1594112022841978e-17
6.015943594955e-20 -1.29757741188178e-18 8.68839565620921e-18
1.0450965183005e-19 -2.4384457728541198e-18 1.643230263386709e-17
2.9525017224e-21 -7.406304845664e-20 5.0297756921719e-19
5.555518808177999e-20 -1.53270715938675e-18 1.051412285198377e-17
6.249715180979e-20 -1.88208071377703e-18 1.3045916156408679e-17
-8.825103663241e-20 2.8441181033367197e-18 -1.993404961561855e-17
-6.59629581531e-20 2.2590222674181898e-18 -1.601662365922886e-17
8.466622288e-22 -3.067401571545e-20 2.2005198000042997e-19
6.00481611212e-21 -2.2569609981839e-19 1.63834392294601e-18
3.612321022466e-20 -1.40853521471594e-18 1.034716799916221e-17
-7.600448299035999e-20 3.06881352259768e-18 -2.281028847462477e-17
5.509219663323e-20 -2.25667269799634e-18 1.696227464337544e-17
-5.214518602952e-20 2.19050728909891e-18 -1.663875145831841e-17
1.2610556822679999e-20 -5.225162543491699e-19 4.00791988726593e-18
-7.863002389569999e-20 2.64658209211035e-18 -2.048437466315832e-17
1.2846430775521e-19 -3.5367644970066195e-18 2.7599408065351238e-17
-2.23444244069e-20 4.5854419584728e-19 -3.60472936264241e-18
9.069636529842e-20 -1.52033732830349e-18 1.202963416919414e-17
-3.2710353068219997e-20 4.7826010688109e-19 -3.7957313773344694e-18
3.798314689232e-20 -4.614680669282099e-19 3.6804201129081895e-18
4.012613792748e-19 -3.6615531301857595e-18 2.932297754352525e-17
-2.376485768366e-20 1.1116250592464e-19 -8.932123896731999e-19
1.3669674914799998e-21 1.5951145995399999e-21 -1.471658805508e-20
4.1226643227785995e-19 1.9382884759019998e-20 2.42985593425542e-18
-4.0492653438488e-19 -2.2414250886731997e-19 1.4381448748097699e-18
-3.96562254141e-21 -1.744190824754e-20 2.3222057388125e-19
1.783934035159e-20 3.1685826739031e-19 -4.01187450804881e-18
1.47692551953e-21 1.9725561815862e-19 -2.29721519870483e-18
-1.7471832353209998e-20 9.2075465847211e-19 -9.913990544448159e-18
-3.174000547031e-20 8.6855615132639e-19 -8.70057759277362e-18
6.336793183812999e-20 -1.2729096652353e-18 1.1864813412534909e-17
-9.719191247807e-20 1.66877201244327e-18 -1.4699262591751158e-17
8.904570414855e-20 -1.38153227504082e-18 1.1598431522583699e-17
4.5693144102459995e-20 -6.662933200433e-19 5.3723852951786995e-18
5.7874264640784e-19 -8.05983911594186e-18 6.286996867730154e-17
1.4210277868649e-19 -1.92061183512156e-18 1.4582071300153038e-17
7.521063622451599e-19 -1.019105128998045e-17 7.565488245322403e-17
1.8387341662917998e-19 -2.52469436698477e-18 1.839297522521764e-17
2.6088328958042e-19 -3.6178191608274895e-18 2.577941408070994e-17
-3.5995908127622996e-19 5.1276126937375095e-18 -3.59839201090494e-17
-2.0494538103671998e-19 2.9738161306707897e-18 -2.059649586516211e-17
-4.4496145043428e-19 6.56681565917048e-18 -4.5149900373295245e-17
1.9038280084829998e-20 -2.9034800677424998e-19 1.9777823559989e-18
-1.0848828735528e-19 1.7336707793490599e-18 -1.1717376505982939e-17
-3.602178300939e-19 5.91674001825258e-18 -3.974563435641033e-17
5.3127412334989995e-20 -8.947909999822499e-19 5.983892605877429e-18
9.555887145161e-20 -1.66316641065637e-18 1.109147990843272e-17
-2.8538230370787e-19 5.1515263255379e-18 -3.43227727910731e-17
2.9756446236912997e-19 -5.64250947652915e-18 3.763002171227732e-17
-1.6109760462253e-19 3.2412399120952297e-18 -2.1594112022841978e-17
6.015943594955e-20 -1.29757741188178e-18 8.68839565620921e-18
1.0450965183005e-19 -2.4384457728541198e-18 1.643230263386709e-17
2.9525017224e-21 -7.406304845664e-20 5.0297756921719e-19
5.555518808177999e-20 -1.53270715938675e-18 1.051412285198377e-17
6.249715180979e-20 -1.88208071377703e-18 1.3045916156408679e-17
-8.825103663241e-20 2.8441181033367197e-18 -1.993404961561855e-17
-6.59629581531e-20 2.2590222674181898e-18 -1.601662365922886e-17
8.466622288e-22 -3.067401571545e-20 2.2005198000042997e-19
6.00481611212e-21 -2.2569609981839e-19 1.63834392294601e-18
3.612321022466e-20 -1.40853521471594e-18 1.034716799916221e-17
-7.600448299035999e-20 3.06881352259768e-18 -2.281028847462477e-17
5.509219663323e-20 -2.25667269799634e-18 1.696227464337544e-17
-5.214518602952e-20 2.19050728909891e-18 -1.663875145831841e-17
1.2610556822679999e-20 -5.225162543491699e-19 4.00791988726593e-18
-7.863002389569999e-20 2.64658209211035e-18 -2.048437466315832e-17
1.2846430775521e-19 -3.5367644970066195e-18 2.7599408065351238e-17
-2.23444244069e-20 4.5854419584728e-19 -3.60472936264241e-18
9.069636529842e-20 -1.52033732830349e-18 1.202963416919414e-17
-3.2710353068219997e-20 4.7826010688109e-19 -3.7957313773344694e-18
3.798314689232e-20 -4.614680669282099e-19 3.6804201129081895e-18
4.012613792748e-19 -3.6615531301857595e-18 2.932297754352525e-17
-2.376485768366e-20 1.1116250592464e-19 -8.932123896731999e-19

SCALARS Gamma float
LOOKUP_TABLE default
9.963351223902016e-5
-0.001045609688265324
0.0007085305372273293
0.014360934430654294
0.052913667310900143
0.09293248960527474
0.1408328246856129
0.18430543873553132
0.23063116830036556
0.2637955161250416
0.2845607045280216
0.2899017643614577
0.28313090794009554
0.259092303927786
0.24712618270845255
0.23842660115378014
0.22720944732386428
0.22153019859077677
0.21638801143434863
0.21438659757773773
0.21345995132326148
0.2107704581462355
0.20276350613977365
0.19816107543332104
0.19415100521356296
0.19211712743406856
0.19187945924283872
0.19290496364318518
0.19400189626563472
0.19589910665583765
0.19456808829045394
0.20092487392687297
0.198833376670624
0.19682071488220199
0.19466572599764947
0.191973621089447
0.18877278768326725
0.18588944312151928
0.18163944728974732
0.17449440752862835
0.1688749728227214
0.15811461201680668
0.14231780745353576
0.12259825774988391
0.10636196976339277
0.09016577918092325
0.08058424834610695
0.06834390500004826
0.05175425897874195
0.027411933728574683
9.963351223902016e-5
-0.001045609688265324
0.0007085305372273293
0.014360934430654294
0.052913667310900143
0.09293248960527474
0.1408328246856129
0.18430543873553132
0.23063116830036556
0.2637955161250416
0.2845607045280216
0.2899017643614577
0.28313090794009554
0.259092303927786
0.24712618270845255
0.23842660115378014
0.22720944732386428
0.22153019859077677
0.21638801143434863
0.21438659757773773
0.21345995132326148
0.2107704581462355
0.20276350613977365
0.19816107543332104
0.19415100521356296
0.19211712743406856
0.19187945924283872
0.19290496364318518
0.19400189626563472
0.19589910665583765
0.19456808829045394
0.20092487392687297
0.198833376670624
0.19682071488220199
0.19466572599764947
0.191973621089447
0.18877278768326725
0.18588944312151928
0.18163944728974732
0.17449440752862835
0.1688749728227214
0.15811461201680668
0.14231780745353576
0.12259825774988391
0.10636196976339277
0.09016577918092325
0.08058424834610695
0.06834390500004826
0.05175425897874195
0.027411933728574683

VECTORS Ftot float
0.0004262884870215013 -0.0018945397738906174 -0.00016575075281439076
0.029919647909693488 -0.053174923679308435 -0.004652203005795547
0.021671216692789756 -0.08925090824779133 -0.007808442681073867
-0.13333102066878422 -0.18392513133285562 -0.016091363929141043
-0.7117894235723417 -0.37198631234570945 -0.03254458531706194
-1.4907319856021222 -0.5911128939067151 -0.05171567708083805
-2.600670920250593 -0.8510215243829345 -0.07445473580005497
-3.8209779640949115 -1.129697857252493 -0.09883575571911733
-5.283824575889396 -1.4255578127250577 -0.12472014781425055
-6.611091573472634 -1.678744104877937 -0.14687107813778932
-7.726176734269372 -1.8756296838839979 -0.1640963343125567
-8.463711242997592 -1.97041102223001 -0.17238862693164747
-8.827913323092918 -1.9961830393361002 -0.1746433862646265
-8.579978473410465 -1.8907443956675443 -0.1654187002460787
-8.65692065909793 -1.8227129221751934 -0.1594667175525338
-8.798530447728176 -1.7671052415538837 -0.15460167589319915
-8.798096125604024 -1.684714403359311 -0.14739341157277555
-8.976644057044613 -1.6324034904207039 -0.14281679971195602
-9.14565972562688 -1.5994800921320795 -0.13993637559695268
-9.410573950231484 -1.600231086570904 -0.14000207909672083
-9.72247674683561 -1.5778039378932658 -0.13803995783221715
-9.9402678435933 -1.5220213840016488 -0.1331596167441769
-9.87711211951895 -1.458490813098278 -0.12760141200280223
-9.950530178176008 -1.4238921416870076 -0.12457442048125769
-10.032585817120223 -1.3838332262671715 -0.12106971950887832
-10.199118019001883 -1.3546258827972355 -0.11851440806355108
-10.449828833072928 -1.3230164525913082 -0.11574894126001864
-10.763319255437704 -1.2825037453702437 -0.11220453864943075
-11.072460320852327 -1.2394153234536713 -0.10843479020250885
-11.421619903025178 -1.1927087009850557 -0.10434849022491992
-11.572637549475889 -1.1367353121010295 -0.0994514532384398
-12.177740983710308 -1.103935815509668 -0.09658186911733858
-12.264681585815229 -1.034826975850097 -0.09053562909769555
-12.341299170107844 -0.9900171334708759 -0.08661527587513032
-12.395053326443445 -0.9532090707218589 -0.08339498765824058
-12.400671234029444 -0.9192098409248691 -0.08042044048239128
-12.358742136221519 -0.901072762415222 -0.07883365172331756
-12.321329252324684 -0.8843786957045787 -0.0773731101379908
-12.181543038086145 -0.8627247015224601 -0.07547863112699917
-11.830496728017689 -0.8435314696381779 -0.07379944092070023
-11.565951369332751 -0.8207736112240693 -0.07180838630333772
-10.930384666169358 -0.8019973212808594 -0.0701656737902311
-9.921736151663016 -0.9130589445788013 -0.07988230678158732
-8.6133089137544 -0.9860743267571305 -0.0862703249852037
-7.524782814636985 -1.1743764947129167 -0.10274462999868895
-6.419477630407932 -1.2443840344172805 -0.10886949608416162
-5.771148045957733 -1.29142582671664 -0.11298511962229651
-4.919075926475095 -1.3396280516858543 -0.11720226786382884
-3.7412834322138178 -1.3695815082040146 -0.1198228557425845
-1.989343649527119 -1.4319022428986425 -0.12527521353097099
0.0004262884870215013 -0.0018945397738906174 -0.00016575075281439076
0.029919647909693488 -0.053174923679308435 -0.004652203005795547
0.021671216692789756 -0.08925090824779133 -0.007808442681073867
-0.13333102066878422 -0.18392513133285562 -0.016091363929141043
-0.7117894235723417 -0.37198631234570945 -0.03254458531706194
-1.4907319856021222 -0.5911128939067151 -0.05171567708083805
-2.600670920250593 -0.8510215243829345 -0.07445473580005497
-3.8209779640949115 -1.129697857252493 -0.09883575571911733
-5.283824575889396 -1.4255578127250577 -0.12472014781425055
-6.611091573472634 -1.678744104877937 -0.14687107813778932
-7.726176734269372 -1.8756296838839979 -0.1640963343125567
-8.463711242997592 -1.97041102223001 -0.17238862693164747
-8.827913323092918 -1.9961830393361002 -0.1746433862646265
-8.579978473410465 -1.8907443956675443 -0.1654187002460787
-8.65692065909793 -1.8227129221751934 -0.1594667175525338
-8.798530447728176 -1.7671052415538837 -0.15460167589319915
-8.798096125604024 -1.684714403359311 -0.14739341157277555
-8.976644057044613 -1.6324034904207039 -0.14281679971195602
-9.14565972562688 -1.5994800921320795 -0.13993637559695268
-9.410573950231484 -1.600231086570904 -0.14000207909672083
-9.72247674683561 -1.5778039378932658 -0.13803995783221715
-9.9402678435933 -1.5220213840016488 -0.1331596167441769
-9.87711211951895 -1.458490813098278 -0.12760141200280223
-9.950530178176008 -1.4238921416870076 -0.12457442048125769
-10.032585817120223 -1.3838332262671715 -0.12106971950887832
-10.199118019001883 -1.3546258827972355 -0.11851440806355108
-10.449828833072928 -1.3230164525913082 -0.11574894126001864
-10.763319255437704 -1.2825037453702437 -0.11220453864943075
-11.072460320852327 -1.2394153234536713 -0.10843479020250885
-11.421619903025178 -1.1927087009850557 -0.10434849022491992
-11.572637549475889 -1.1367353121010295 -0.0994514532384398
-12.177740983710308 -1.103935815509668 -0.09658186911733858
-12.264681585815229 -1.034826975850097 -0.09053562909769555
-12.341299170107844 -0.9900171334708759 -0.08661527587513032
-12.395053326443445 -0.9532090707218589 -0.08339498765824058
-12.400671234029444 -0.9192098409248691 -0.08042044048239128
-12.358742136221519 -0.901072762415222 -0.07883365172331756
-12.321329252324684 -0.8843786957045787 -0.0773731101379908
-12.181543038086145 -0.8627247015224601 -0.07547863112699917
-11.830496728017689 -0.8435314696381779 -0.07379944092070023
-11.565951369332751 -0.8207736112240693 -0.07180838630333772
-10.930384666169358 -0.8019973212808594 -0.0701656737902311
-9.921736151663016 -0.9130589445788013 -0.07988230678158732
-8.6133089137544 -0.9860743267571305 -0.0862703249852037
-7.524782814636985 -1.1743764947129167 -0.10274462999868895
-6.419477630407932 -1.2443840344172805 -0.10886949608416162
-5.771148045957733 -1.29142582671664 -0.11298511962229651
-4.919075926475095 -1.3396280516858543 -0.11720226786382884
-3.7412834322138178 -1.3695815082040146 -0.1198228557425845
-1.989343649527119 -1.4319022428986425 -0.12527521353097099

VECTORS D float
0.0009053452511639573 -0.0016331094955398064 -9.291686815961398e-5
0.02231208893169556 -0.056269492858523354 -0.0033367658101489525
0.028496591887605935 -0.08716283129048183 -0.005561240477707305
0.03901637538496179 -0.134336814641135 -0.009423653300613693
0.04568640714917339 -0.17041130354878992 -0.01325595177838293
0.051782413169961086 -0.20567108343117013 -0.017627124335119454
0.053131906752981094 -0.22260006116220146 -0.02076745525785936
0.057695812095097575 -0.25317539699780417 -0.02548432117916128
0.060010904730929675 -0.2766515957367732 -0.030000914861466235
0.0631405379985606 -0.3036132028313768 -0.03488596532890064
0.0676341189360314 -0.3399709792289679 -0.041014460205323316
0.06972418368276907 -0.367571807796737 -0.04617996359388043
0.07335409563719651 -0.40675656341910926 -0.05282085666354562
0.07265773171048245 -0.4245954064549744 -0.05663172339145837
0.06832419490717806 -0.4211682767068356 -0.057412481924118124
0.06422982218866478 -0.4177052577258768 -0.05797801905554078
0.059154201250850046 -0.40556044041808614 -0.057513978796843994
0.0545378779007731 -0.3936796049684246 -0.056643854753695634
0.05257373165791151 -0.398799323904006 -0.05810360236168615
0.055175865981359415 -0.44970481027522624 -0.06595096996574731
0.0523826269713562 -0.449651341756694 -0.06651522881032011
0.047285095572969144 -0.4273951867739745 -0.06367401655137207
0.04478033275584133 -0.4266504075296653 -0.0639192267394517
0.043700957855281226 -0.43996390526619666 -0.06617723405792646
0.04199750512062802 -0.4484918774078882 -0.06761314687861998
0.04063271733736399 -0.46263946624066266 -0.06977569273407033
0.03857113159476176 -0.47118757802586164 -0.07095817782636382
0.03579701703480921 -0.4753158799143257 -0.07161116941933877
0.03297622119438371 -0.47664801324609357 -0.07141382032134291
0.029984579759963822 -0.47533831293711976 -0.07072778561494908
0.027335516336499215 -0.4790174468770372 -0.07069540018263125
0.024754708925735613 -0.4854843714985298 -0.07090278808524639
0.021795037376503516 -0.4799726620685933 -0.06934809386573512
0.019912676424458108 -0.49642290194737987 -0.07091598064291316
0.018217835002603006 -0.5184962731588915 -0.07320496216139771
0.016506180426423284 -0.5411420872332565 -0.0754956899163573
0.015117979320486316 -0.5764908805683816 -0.07947203403839112
0.013415621898042398 -0.6140310636050597 -0.08363341461329245
0.011728048142170003 -0.6367727963368525 -0.0857081818422098
0.010126446522793849 -0.6599878286654538 -0.08783812510217394
0.008485049652786078 -0.672538314367361 -0.08856689385644229
0.007029623759778825 -0.6876430057504531 -0.08967077817744652
0.006747369907987807 -0.828703808069917 -0.10709446785818341
0.005886973999800472 -0.9271729602025006 -0.1188412688598961
0.005455630333857153 -1.1328450366929916 -0.1441388151560666
0.00426862092292657 -1.2161659824786057 -0.1537344912544042
0.0024458947827616815 -1.2743456548164622 -0.1605879432874784
0.0013325352476593222 -1.328500072822454 -0.16658722526025666
0.0002910992557074081 -1.362499016848144 -0.1701389069203105
-0.0006593347529095091 -1.4263236698028596 -0.17749198984617143
0.0009053452511639573 -0.0016331094955398064 -9.291686815961398e-5
0.02231208893169556 -0.056269492858523354 -0.0033367658101489525
0.028496591887605935 -0.08716283129048183 -0.005561240477707305
0.03901637538496179 -0.134336814641135 -0.009423653300613693
0.04568640714917339 -0.17041130354878992 -0.01325595177838293
0.051782413169961086 -0.20567108343117013 -0.017627124335119454
0.053131906752981094 -0.22260006116220146 -0.02076745525785936
0.057695812095097575 -0.25317539699780417 -0.02548432117916128
0.060010904730929675 -0.2766515957367732 -0.030000914861466235
0.0631405379985606 -0.3036132028313768 -0.03488596532890064
0.0676341189360314 -0.3399709792289679 -0.041014460205323316
0.06972418368276907 -0.367571807796737 -0.04617996359388043
0.07335409563719651 -0.40675656341910926 -0.05282085666354562
0.07265773171048245 -0.4245954064549744 -0.05663172339145837
0.06832419490717806 -0.4211682767068356 -0.057412481924118124
0.06422982218866478 -0.4177052577258768 -0.05797801905554078
0.059154201250850046 -0.40556044041808614 -0.057513978796843994
0.0545378779007731 -0.3936796049684246 -0.056643854753695634
0.05257373165791151 -0.398799323904006 -0.05810360236168615
0.055175865981359415 -0.44970481027522624 -0.06595096996574731
0.0523826269713562 -0.449651341756694 -0.06651522881032011