# vtk DataFile Version 4.0
[MyVLM domain - lattices] 
ASCII
DATASET UNSTRUCTURED_GRID
POINTS 152 float
0.0018916144324157278 0.003964402281066037 -0.009314157889595016
0.0010688609733395774 0.007698766008041815 -0.011360409562745838
0.00045780959861706216 0.01135990847329433 -0.013386359803769732
-0.00013255382275044122 0.014983299408660599 -0.015259633771320093
-0.0007201482309470062 0.01855404651398004 -0.017035810286237782
-0.0011946371146526612 0.022110864620126687 -0.018570403632694486
-0.0014108622120167862 0.025732388615751594 -0.01956994441099694
-0.0013224843579428829 0.02935306355893191 -0.020279086995088454
-0.0010167791708201568 0.032877203103599366 -0.021054937690086414
-0.0006138083932142036 0.036368807791182234 -0.021658643223668637
-0.00020084691410191335 0.0397983254020179 -0.022200493981092365
0.0001698744379422134 0.043128629280410946 -0.02281904852772804
0.0004739400232210948 0.04637878537574649 -0.02344315177177591
0.0007082255455298663 0.049569966404869714 -0.02399378605823539
0.0008836440760600275 0.05269912959994221 -0.0244823071512751
0.001017516815515788 0.055750942292443505 -0.024965937348829147
0.0011275777072549662 0.05871136123335968 -0.025497086769720678
0.0012277625198140337 0.061576877120066834 -0.026088852309641336
0.00132638558954348 0.06435624458142504 -0.026708561248883843
0.0014271324949937316 0.06706235911547802 -0.02730808693356019
0.0015306083418583354 0.06970373340130642 -0.027855659612832807
0.0016355657532635378 0.07228056066348874 -0.028350558162757486
0.0017398364473795213 0.07478762860292355 -0.028812235148405047
0.0018410131526058282 0.07721890804932226 -0.029263191739620026
0.001936923789896676 0.07956996783069277 -0.02971996529541387
0.0020259353317291845 0.08183833291149073 -0.030191792774188726
0.0021071205190511294 0.08402334873396104 -0.030681117018743112
0.002180316672546981 0.08612596030196563 -0.031184411226650964
0.0022461021518325993 0.08814843754547372 -0.03169320390393751
0.0023056987632523672 0.09009403431580863 -0.03219535151214384
0.0023607022647827588 0.09196630472875061 -0.03267758991060211
0.0024126938092907785 0.09376818520522075 -0.033128960227242404
0.0024629658139780817 0.0955014105048684 -0.03354298825091433
0.0025123806343549317 0.09716629227958969 -0.0339185108809074
0.0025613283706516186 0.09876176037125585 -0.0342595220017302
0.0026097549007438213 0.1002855819602628 -0.03457435460958935
0.0026572361369983943 0.10173469114445971 -0.0348744508070828
0.002703078927872171 0.10310579272090527 -0.03517210845900872
0.0027464329900004744 0.10439681514447362 -0.035475058677027105
0.0027864017842759935 0.1056081148089959 -0.03578197138125239
0.0028221433614242725 0.10674259467078884 -0.03608201259121868
0.0028529549202113143 0.10780508750608318 -0.036357146140490966
0.002878337166053322 0.1088015310777038 -0.036585211996523724
0.0028980365508205295 0.10973923148883037 -0.03673894341104496
0.0029120651374179955 0.11062719954103017 -0.03678471161478872
0.002920699186668212 0.11147461475034179 -0.03668825818751007
0.0029244586304951574 0.11228837958828888 -0.036423822754785014
0.002924070395798875 0.11307086529594071 -0.035982555724465855
0.0029204190990956736 0.1138184902642244 -0.035377823843585746
0.0029144889643634465 0.11452140664806494 -0.03464637977030935
0.002907300946956263 0.11516429725190484 -0.03384538805668693
0.006212993241944028 0.007741948885664894 0.004783837966727016
0.0072288922610571306 0.012527716424882564 0.006661478740134494
0.007974780507892725 0.01684948059026166 0.007101002248565497
0.008270023946844132 0.02085292457224285 0.006646105560553333
0.008140225139500825 0.024605710252979102 0.005549306258028643
0.007751519283975376 0.028207355786332215 0.00418201114747906
0.007318662739924205 0.03177924589253686 0.002997234172082952
0.0069707766105224795 0.035284311304661795 0.0018566309442535397
0.006702226685381192 0.03864602789225635 0.0004746095211439222
0.006460614097576536 0.04194235705715034 -0.000857874184587733
0.006208498480286784 0.045154702367587264 -0.002210223001096165
0.005928720355726676 0.04825462567516074 -0.003688569543107179
0.00562110152420414 0.05126800537353241 -0.005196334330657274
0.005297776270156929 0.05422137019145777 -0.0066345108001707506
0.004977662142563614 0.05711589141037515 -0.00799872766980972
0.004680078492205027 0.05993957300965105 -0.009333754698067135
0.0044193472589770496 0.06268107148564395 -0.010681926416868933
0.0042022226504668725 0.06533907274082798 -0.01204814710494778
0.004028605706719037 0.06792404632679254 -0.013393343863839604
0.003894567528214928 0.07045008697805423 -0.014664914428209221
0.003794542923454683 0.07292641052867298 -0.01582846483711086
0.0037223892098821663 0.07535347938101625 -0.01688226938141565
0.0036720478837599236 0.0777259804983774 -0.01784615658405519
0.0036379885391020494 0.0800374741929946 -0.01874415968694149
0.003615480687410345 0.08228286563009507 -0.019595292872302834
0.003600729157216099 0.08445881623889319 -0.020412015855935772
0.0035909263662617956 0.08656365694904904 -0.021200557693150275
0.003584242976167935 0.0885972119046883 -0.021961574687004094
0.00357976601221264 0.09056056454048583 -0.02269102340424402
0.003577378730160166 0.0924557535406214 -0.023381295371930573
0.0035774796054096774 0.09428512222334948 -0.02402364520727968
0.003580588564800478 0.09605042959414652 -0.024611508212482563
0.0035870678637920984 0.09775229137238824 -0.02514258649154571
0.0035969747054953923 0.09938997943171793 -0.0256195974490268
0.0036100119296844893 0.10096147983857838 -0.02605005718728431
0.0036255480079795204 0.10246372463768502 -0.026445415471315657
0.0036426825552804717 0.10389293008075538 -0.02681979344195413
0.0036603380175139954 0.1052452052538307 -0.027187712187781474
0.003677362157174432 0.10651800631742797 -0.027558665446994885
0.0036926294639041822 0.10771133879386051 -0.027932632610040288
0.0037051326977571345 0.10882787124988136 -0.02829965445021204
0.003714058455611533 0.10987231102557893 -0.028642162935131648
0.003718842962038476 0.11085056966722637 -0.02893809587375623
0.003719206248598144 0.11177001473944137 -0.029159957140604934
0.003715164522496519 0.11263979323925676 -0.02927360967801427
0.0037070218583473346 0.11346928167236887 -0.029244059890328054
0.003695343396461056 0.11426562575968927 -0.029044639584047797
0.003680913018392471 0.11503147151250334 -0.028665473710618887
0.0036646790161518838 0.11576352904322879 -0.028118840297649716
0.003647691596346039 0.11645224513188421 -0.027440392447486715
0.0036310361855396924 0.11708258691271418 -0.02668623357891241
0.005410766489344848 0.009059020527593779 0.0017076728335304596
0.005892211109850776 0.013398783190846104 0.002067584199948051
0.006132458642509649 0.017431302921183556 0.001574416231533333
0.006047255650667177 0.02123915629978831 0.0005363489247735089
0.005720055990603616 0.024888013656505087 -0.0008015327128011463
0.005325630843128663 0.028475382284060692 -0.002075326510625673
0.005016871435172548 0.03203451547078494 -0.003160929507134491
0.004834968294868498 0.035502660531660714 -0.004292537911122811
0.004732241848104854 0.03887639571787521 -0.00548292186301081
0.00464908530328423 0.042182288933426626 -0.006632928595226587
0.004547585503985086 0.045394367351334106 -0.007839490017678806
0.004411660012619469 0.048509413475279616 -0.009114613990099664
0.004242349868979272 0.051552109809448333 -0.010366184152811922
0.00405227310746894 0.054535110101288836 -0.011546976077431487
0.003859297849485217 0.05745205814405804 -0.012680711450466852
0.0036804214720396232 0.060290529626461024 -0.013813758432919753
0.003527506244425096 0.06304358387910529 -0.01497201995560152
0.003405829147614405 0.06571530986304418 -0.016140235808110918
0.003315379723667389 0.06831762545143043 -0.01727392788232382
0.003253134023982613 0.07086194812962077 -0.018330485542794157
0.003214621311891553 0.07335299547423287 -0.01929230255389623
0.0031948391851961662 0.07578832111307415 -0.020168508900946885
0.0031888698585714084 0.07816211259079524 -0.02098079696262689
0.0031922930777549615 0.08046873691866051 -0.021750189339095862
0.003201436081938149 0.08270416829364353 -0.022491710531789805
0.0032135028026517493 0.08486613765115981 -0.02321382880502375
0.003226618152360912 0.08695398944964235 -0.023918990673232148
0.0032398057236901635 0.08896846589787022 -0.024604426175541604
0.003252904392775423 0.09091142826307551 -0.025263188968075643
0.003266372004343082 0.092785370792059 -0.025885970395047087
0.0032809500730880004 0.09459264317330743 -0.026464001299641406
0.0032973286136308236 0.09633471982621168 -0.026991779073780194
0.0033159342695244357 0.09801181439959708 -0.02746850636919241
0.0033368336138182735 0.0996228038077168 -0.027898374598946365
0.0033597203855484335 0.10116536947003861 -0.028290036823389937
0.0033839603409402744 0.10263627965750546 -0.028655554019560187
0.003408672097906746 0.1040318612336404 -0.029008634519412296
0.0034328265552422406 0.10534903032239439 -0.029360787505045616
0.0034553512046890385 0.10658662066091686 -0.02971636552867313
0.003475228953835527 0.10774604245137631 -0.03007010564415351
0.0034915839677176984 0.10883102862540658 -0.03040807636096759
0.0035037495424018335 0.10984690758277538 -0.030710391820459797
0.0035113151685979642 0.11080031447331719 -0.03095228930633153
0.003514151750190315 0.11169948187074435 -0.03110304443521141
0.003512415433327221 0.1125536298782811 -0.03112824731341572
0.0035065316976985676 0.11337096457935066 -0.030997272420677832
0.0034971622838568268 0.11415631708760093 -0.030692089795406368
0.003485158199815951 0.11490929465342019 -0.03021416519910718
0.0034715024876191118 0.11562340242970355 -0.029587737731163053
0.003457246657122113 0.1162862750042206 -0.02885895573827421

CELLS 100 350
4 0 51 52 1
4 1 52 53 2
4 2 53 54 3
4 3 54 55 4
4 4 55 56 5
4 5 56 57 6
4 6 57 58 7
4 7 58 59 8
4 8 59 60 9
4 9 60 61 10
4 10 61 62 11
4 11 62 63 12
4 12 63 64 13
4 13 64 65 14
4 14 65 66 15
4 15 66 67 16
4 16 67 68 17
4 17 68 69 18
4 18 69 70 19
4 19 70 71 20
4 20 71 72 21
4 21 72 73 22
4 22 73 74 23
4 23 74 75 24
4 24 75 76 25
4 25 76 77 26
4 26 77 78 27
4 27 78 79 28
4 28 79 80 29
4 29 80 81 30
4 30 81 82 31
4 31 82 83 32
4 32 83 84 33
4 33 84 85 34
4 34 85 86 35
4 35 86 87 36
4 36 87 88 37
4 37 88 89 38
4 38 89 90 39
4 39 90 91 40
4 40 91 92 41
4 41 92 93 42
4 42 93 94 43
4 43 94 95 44
4 44 95 96 45
4 45 96 97 46
4 46 97 98 47
4 47 98 99 48
4 48 99 100 49
4 49 100 101 50
1 102
1 103
1 104
1 105
1 106
1 107
1 108
1 109
1 110
1 111
1 112
1 113
1 114
1 115
1 116
1 117
1 118
1 119
1 120
1 121
1 122
1 123
1 124
1 125
1 126
1 127
1 128
1 129
1 130
1 131
1 132
1 133
1 134
1 135
1 136
1 137
1 138
1 139
1 140
1 141
1 142
1 143
1 144
1 145
1 146
1 147
1 148
1 149
1 150
1 151

CELL_TYPES 100
9
9
9
9
9
9
9
9
9
9
9
9
9
9
9
9
9
9
9
9
9
9
9
9
9
9
9
9
9
9
9
9
9
9
9
9
9
9
9
9
9
9
9
9
9
9
9
9
9
9
1
1
1
1
1
1
1
1
1
1
1
1
1
1
1
1
1
1
1
1
1
1
1
1
1
1
1
1
1
1
1
1
1
1
1
1
1
1
1
1
1
1
1
1
1
1
1
1
1
1

CELL_DATA 100

VECTORS S float
4.9014292772322495e-18 -1.5790478614953299e-18 -2.66147855552912e-18
1.08254409504281e-18 3.70126710356659e-18 -1.2246122260738399e-18
6.1874934240692895e-18 8.889734603922279e-18 -3.95336994869163e-18
-1.0176222676702999e-19 5.29346194862831e-18 -9.9068359406915e-19
-3.79229247146e-21 8.859128081925499e-19 -1.6318124989372998e-19
-6.832396929759999e-21 1.6686313015462008e-17 -2.95932401119857e-18
7.570336106389999e-21 3.82754699020225e-18 -6.5191273177088e-19
-1.4691092739592e-19 -3.798520412539892e-17 6.20549054353866e-18
-1.1651826455006e-19 -2.181668144406548e-17 3.42153100370816e-18
4.9682934022949997e-20 7.48709511940128e-18 -1.1271295150663699e-18
-4.529127658781199e-19 -5.874569975750184e-17 8.50931611876608e-18
3.1375685535335e-19 3.6610531505694356e-17 -5.1164012673444996e-18
-8.057738315638e-20 -8.668526526915609e-18 1.1726057419076799e-18
1.986504649206e-20 2.00777294891253e-18 -2.6372442889562e-19
3.5462651902757e-19 3.5052453535616196e-17 -4.48638888391983e-18
-8.36326578477e-21 -8.2406106689082e-19 1.0324340408756e-19
-5.3466397318618e-19 -5.2952746728641405e-17 6.5080451592531194e-18
1.3120702665382e-19 1.3196938517056629e-17 -1.59395208971257e-18
3.1196732490975e-19 3.1653410758287556e-17 -3.76358100844139e-18
-8.564645000826e-20 -8.54013341058769e-18 1.00127392107853e-18
3.260993066197e-20 3.3375957961391297e-18 -3.8518633880026e-19
-1.9635813348833998e-19 -2.10236696220354e-17 2.40651434246937e-18
3.2573273577857e-19 3.5806937513739467e-17 -4.0723084581998e-18
-3.9460815567389e-19 -4.4443700761747146e-17 5.0304932753870794e-18
1.4601026071419998e-20 1.6985993165695499e-18 -1.9168741377542e-19
3.9135018283213996e-19 4.721943979663886e-17 -5.3234644375889396e-18
3.3102476728173e-19 4.199308784202694e-17 -4.73943699414918e-18
-8.905257635414999e-20 -1.2016420124737099e-17 1.3606351181013498e-18
3.0705849427109e-19 4.4794272423597925e-17 -5.1029678936701596e-18
3.3457458117787e-19 5.3191731510530236e-17 -6.11303778012526e-18
-1.2109492227446998e-19 -2.0856538710526028e-17 2.42148724229627e-18
-1.5296159648079998e-20 -2.9060315786696998e-18 3.4123157418655996e-19
-6.158387598686e-20 -1.287426105705582e-17 1.5302567197439499e-18
1.22536360529e-20 2.76429808236878e-18 -3.3279765104764997e-19
-6.266952557621e-20 -1.5154506034735358e-17 1.8484512809714997e-18
6.818488719763e-20 1.759859260400724e-17 -2.17477447478714e-18
2.401877209664e-20 6.48949302415239e-18 -8.123107985346599e-19
3.8641957163669995e-20 1.0846727177241629e-17 -1.37468535829129e-18
1.3466286456556e-19 3.950758819456926e-17 -5.0667466673341295e-18
-5.817226009938999e-20 -1.749807913242637e-17 2.26670300414286e-18
-7.99880732272e-21 -2.4844708523893197e-18 3.2518892197243997e-19
1.9269165819069998e-20 5.94844074384994e-18 -7.859773897649e-19
-7.987462472867999e-20 -2.0157440656202998e-17 2.6863951503328097e-18
-5.893092899181999e-20 -1.221639696047996e-17 1.6406243219223599e-18
-1.382873857531e-20 -2.1441492537277898e-18 2.8992025782642e-19
3.044854089451e-19 3.855991829110426e-17 -5.24490991792313e-18
-6.932183455135e-20 -7.47823297855076e-18 1.02241220487528e-18
-3.199768137937e-19 -2.782055529743568e-17 3.8202996235732095e-18
4.864599669716e-20 3.32377702782186e-18 -4.5810826358021e-19
-1.9373584700665497e-18 -7.181457502907761e-17 9.92868779283269e-18
4.9014292772322495e-18 -1.5790478614953299e-18 -2.66147855552912e-18
1.08254409504281e-18 3.70126710356659e-18 -1.2246122260738399e-18
6.1874934240692895e-18 8.889734603922279e-18 -3.95336994869163e-18
-1.0176222676702999e-19 5.29346194862831e-18 -9.9068359406915e-19
-3.79229247146e-21 8.859128081925499e-19 -1.6318124989372998e-19
-6.832396929759999e-21 1.6686313015462008e-17 -2.95932401119857e-18
7.570336106389999e-21 3.82754699020225e-18 -6.5191273177088e-19
-1.4691092739592e-19 -3.798520412539892e-17 6.20549054353866e-18
-1.1651826455006e-19 -2.181668144406548e-17 3.42153100370816e-18
4.9682934022949997e-20 7.48709511940128e-18 -1.1271295150663699e-18
-4.529127658781199e-19 -5.874569975750184e-17 8.50931611876608e-18
3.1375685535335e-19 3.6610531505694356e-17 -5.1164012673444996e-18
-8.057738315638e-20 -8.668526526915609e-18 1.1726057419076799e-18
1.986504649206e-20 2.00777294891253e-18 -2.6372442889562e-19
3.5462651902757e-19 3.5052453535616196e-17 -4.48638888391983e-18
-8.36326578477e-21 -8.2406106689082e-19 1.0324340408756e-19
-5.3466397318618e-19 -5.2952746728641405e-17 6.5080451592531194e-18
1.3120702665382e-19 1.3196938517056629e-17 -1.59395208971257e-18
3.1196732490975e-19 3.1653410758287556e-17 -3.76358100844139e-18
-8.564645000826e-20 -8.54013341058769e-18 1.00127392107853e-18
3.260993066197e-20 3.3375957961391297e-18 -3.8518633880026e-19
-1.9635813348833998e-19 -2.10236696220354e-17 2.40651434246937e-18
3.2573273577857e-19 3.5806937513739467e-17 -4.0723084581998e-18
-3.9460815567389e-19 -4.4443700761747146e-17 5.0304932753870794e-18
1.4601026071419998e-20 1.6985993165695499e-18 -1.9168741377542e-19
3.9135018283213996e-19 4.721943979663886e-17 -5.3234644375889396e-18
3.3102476728173e-19 4.199308784202694e-17 -4.73943699414918e-18
-8.905257635414999e-20 -1.2016420124737099e-17 1.3606351181013498e-18
3.0705849427109e-19 4.4794272423597925e-17 -5.1029678936701596e-18
3.3457458117787e-19 5.3191731510530236e-17 -6.11303778012526e-18
-1.2109492227446998e-19 -2.0856538710526028e-17 2.42148724229627e-18
-1.5296159648079998e-20 -2.9060315786696998e-18 3.4123157418655996e-19
-6.158387598686e-20 -1.287426105705582e-17 1.5302567197439499e-18
1.22536360529e-20 2.76429808236878e-18 -3.3279765104764997e-19
-6.266952557621e-20 -1.5154506034735358e-17 1.8484512809714997e-18
6.818488719763e-20 1.759859260400724e-17 -2.17477447478714e-18
2.401877209664e-20 6.48949302415239e-18 -8.123107985346599e-19
3.8641957163669995e-20 1.0846727177241629e-17 -1.37468535829129e-18
1.3466286456556e-19 3.950758819456926e-17 -5.0667466673341295e-18
-5.817226009938999e-20 -1.749807913242637e-17 2.26670300414286e-18
-7.99880732272e-21 -2.4844708523893197e-18 3.2518892197243997e-19
1.9269165819069998e-20 5.94844074384994e-18 -7.859773897649e-19
-7.987462472867999e-20 -2.0157440656202998e-17 2.6863951503328097e-18
-5.893092899181999e-20 -1.221639696047996e-17 1.6406243219223599e-18
-1.382873857531e-20 -2.1441492537277898e-18 2.8992025782642e-19
3.044854089451e-19 3.855991829110426e-17 -5.24490991792313e-18
-6.932183455135e-20 -7.47823297855076e-18 1.02241220487528e-18
-3.199768137937e-19 -2.782055529743568e-17 3.8202996235732095e-18
4.864599669716e-20 3.32377702782186e-18 -4.5810826358021e-19
-1.9373584700665497e-18 -7.181457502907761e-17 9.92868779283269e-18

SCALARS Gamma float
LOOKUP_TABLE default
1.9725600772287063e-5
-0.0005010704613181685
-0.000276034402501323
0.01093836100914848
0.048281520378643805
0.0885176093948184
0.13604403795700554
0.17853074153289822
0.22370467673619085
0.25639484458764455
0.2763271354425642
0.282889266807583
0.27830937454223315
0.2547675619957025
0.2440888096599478
0.2369673720737103
0.2269692905847611
0.22203270997989796
0.21766689942215314
0.21113080787744534
0.21308479454017445
0.2109995428458391
0.20343991144465234
0.19910462438870588
0.195177497779963
0.19313132127644897
0.19285888289284608
0.19302279139505643
0.19487475803686247
0.19675882631936084
0.1952657997988062
0.20096427697759317
0.19873948718078494
0.19658027399855638
0.19426764824193812
0.19140661285676913
0.18802550996440415
0.18414073754844507
0.17987481539697092
0.17329200658262525
0.16742870911506663
0.15648111921626015
0.1405757373357249
0.12066802186901664
0.10424789516766308
0.08781614642309346
0.07562657689647938
0.061937115178481
0.04888033042292929
0.027305898202727705
1.9725600772287063e-5
-0.0005010704613181685
-0.000276034402501323
0.01093836100914848
0.048281520378643805
0.0885176093948184
0.13604403795700554
0.17853074153289822
0.22370467673619085
0.25639484458764455
0.2763271354425642
0.282889266807583
0.27830937454223315
0.2547675619957025
0.2440888096599478
0.2369673720737103
0.2269692905847611
0.22203270997989796
0.21766689942215314
0.21113080787744534
0.21308479454017445
0.2109995428458391
0.20343991144465234
0.19910462438870588
0.195177497779963
0.19313132127644897
0.19285888289284608
0.19302279139505643
0.19487475803686247
0.19675882631936084
0.1952657997988062
0.20096427697759317
0.19873948718078494
0.19658027399855638
0.19426764824193812
0.19140661285676913
0.18802550996440415
0.18414073754844507
0.17987481539697092
0.17329200658262525
0.16742870911506663
0.15648111921626015
0.1405757373357249
0.12066802186901664
0.10424789516766308
0.08781614642309346
0.07562657689647938
0.061937115178481
0.04888033042292929
0.027305898202727705

VECTORS Ftot float
0.011291317039740647 0.0033193456382553683 0.01882494457126463
0.023053307069196616 0.007693386268843663 0.043631361677788694
0.03295927044480407 0.015071773388829531 0.08547627440946516
-0.09247735791963466 0.02895743959277513 0.1642258007051803
-0.6439974604196254 0.06177527642764948 0.3503450021059798
-1.414899917546954 0.09981840607573589 0.5660983116405273
-2.5042095554865123 0.14541892670511833 0.8247117152510409
-3.688059268614166 0.19405201540961478 1.1005236670527014
-5.114047887717462 0.24702608077607038 1.4009545208767151
-6.405905774992322 0.2906984271736456 1.6486327050213252
-7.475869323606982 0.32286891895184144 1.8310806301711648
-8.226562408220659 0.33989305025892985 1.9276292765478378
-8.643029576139568 0.3450507022623021 1.956879774586477
-8.403243396931444 0.3259620236440814 1.848622498578439
-8.517025173012398 0.31433046036873324 1.7826566252412255
-8.71143404866866 0.30542658624098806 1.7321602457763803
-8.759071576246567 0.29189863727957954 1.6554394347748298
-8.966651424477734 0.28300090176530934 1.6049778691169836
-9.168959889530827 0.27746562022713617 1.573585727563077
-9.24457423319275 0.27668351367496014 1.5691501808927173
-9.685319886292795 0.27390411776028245 1.5533874433722863
-9.93182114411251 0.2644098129225949 1.4995425649564018
-9.89185159068234 0.25347456543882424 1.4375256947086739
-9.980189784911751 0.2474661467431533 1.4034502589952649
-10.06812305494159 0.24040605018077324 1.3634104617162943
-10.235297501082822 0.23522732148961784 1.3340404318414123
-10.485026442218345 0.22963546643998325 1.3023274459604832
-10.749552603375662 0.22262865144116645 1.2625898234442696
-11.10338653729342 0.21505045598380873 1.219611741321448
-11.452646308076094 0.20686553153248405 1.1731927280857068
-11.595110550927242 0.1971066019625129 1.1178470882366007
-12.160186142705 0.19159663287335965 1.086598500714631
-12.239225816013017 0.179643699678486 1.0188100479954405
-12.306789779453892 0.17197104244551695 0.9752962465219458
-12.350490464127175 0.16568831908449916 0.9396651517469189
-12.3450741858674 0.15988111773879154 0.9067308763321484
-12.291119061211718 0.15680963347136045 0.889311623447025
-12.18937282390692 0.15440792064679026 0.8756908331690977
-12.047643839441582 0.150600989209448 0.8541006521199679
-11.735510504476439 0.1470355231997926 0.8338798895609445
-11.45389449038837 0.14310027641375572 0.811561996007585
-10.805317062931065 0.13964964516027806 0.791992493713533
-9.789262897510449 0.15885655989929473 0.9009203200838636
-8.468097901788793 0.171373882974535 0.9719095868707534
-7.366690615898663 0.20377270077462728 1.1556524132375199
-6.244819397601838 0.21571777205966758 1.2233962788504051
-5.408491886584457 0.22319114480723617 1.2657798818449162
-4.451434512393341 0.23143099564376157 1.3125103980904635
-3.528150235681567 0.23649801561073228 1.3412468963087838
-1.9779288542991191 0.2471243806761373 1.4015120073128349
0.011291317039740647 0.0033193456382553683 0.01882494457126463
0.023053307069196616 0.007693386268843663 0.043631361677788694
0.03295927044480407 0.015071773388829531 0.08547627440946516
-0.09247735791963466 0.02895743959277513 0.1642258007051803
-0.6439974604196254 0.06177527642764948 0.3503450021059798
-1.414899917546954 0.09981840607573589 0.5660983116405273
-2.5042095554865123 0.14541892670511833 0.8247117152510409
-3.688059268614166 0.19405201540961478 1.1005236670527014
-5.114047887717462 0.24702608077607038 1.4009545208767151
-6.405905774992322 0.2906984271736456 1.6486327050213252
-7.475869323606982 0.32286891895184144 1.8310806301711648
-8.226562408220659 0.33989305025892985 1.9276292765478378
-8.643029576139568 0.3450507022623021 1.956879774586477
-8.403243396931444 0.3259620236440814 1.848622498578439
-8.517025173012398 0.31433046036873324 1.7826566252412255
-8.71143404866866 0.30542658624098806 1.7321602457763803
-8.759071576246567 0.29189863727957954 1.6554394347748298
-8.966651424477734 0.28300090176530934 1.6049778691169836
-9.168959889530827 0.27746562022713617 1.573585727563077
-9.24457423319275 0.27668351367496014 1.5691501808927173
-9.685319886292795 0.27390411776028245 1.5533874433722863
-9.93182114411251 0.2644098129225949 1.4995425649564018
-9.89185159068234 0.25347456543882424 1.4375256947086739
-9.980189784911751 0.2474661467431533 1.4034502589952649
-10.06812305494159 0.24040605018077324 1.3634104617162943
-10.235297501082822 0.23522732148961784 1.3340404318414123
-10.485026442218345 0.22963546643998325 1.3023274459604832
-10.749552603375662 0.22262865144116645 1.2625898234442696
-11.10338653729342 0.21505045598380873 1.219611741321448
-11.452646308076094 0.20686553153248405 1.1731927280857068
-11.595110550927242 0.1971066019625129 1.1178470882366007
-12.160186142705 0.19159663287335965 1.086598500714631
-12.239225816013017 0.179643699678486 1.0188100479954405
-12.306789779453892 0.17197104244551695 0.9752962465219458
-12.350490464127175 0.16568831908449916 0.9396651517469189
-12.3450741858674 0.15988111773879154 0.9067308763321484
-12.291119061211718 0.15680963347136045 0.889311623447025
-12.18937282390692 0.15440792064679026 0.8756908331690977
-12.047643839441582 0.150600989209448 0.8541006521199679
-11.735510504476439 0.1470355231997926 0.8338798895609445
-11.45389449038837 0.14310027641375572 0.811561996007585
-10.805317062931065 0.13964964516027806 0.791992493713533
-9.789262897510449 0.15885655989929473 0.9009203200838636
-8.468097901788793 0.171373882974535 0.9719095868707534
-7.366690615898663 0.20377270077462728 1.1556524132375199
-6.244819397601838 0.21571777205966758 1.2233962788504051
-5.408491886584457 0.22319114480723617 1.2657798818449162
-4.451434512393341 0.23143099564376157 1.3125103980904635
-3.528150235681567 0.23649801561073228 1.3412468963087838
-1.9779288542991191 0.2471243806761373 1.4015120073128349

VECTORS D float
0.01137865278245317 0.003874576300971084 0.018656366912284127
0.019407052936478025 0.009180640739211971 0.04490318889970041
0.0302855856007124 0.017165595532418726 0.08599990761362755
0.03852803694050259 0.0240763737959572 0.1246883166909509
0.045617456831393045 0.02998890353401367 0.16174994996982517
0.050677896098020606 0.03426727485146025 0.19310093139317433
0.0523079689911702 0.03596014050140861 0.21173864188042119
0.057931448180077894 0.0401309343474549 0.2470219694887253
0.06174275848031648 0.043011974128397676 0.2763595290767534
0.06534751878123327 0.045752820663514 0.30679914963671784
0.06904473201622517 0.04879178249363714 0.34051839244297544
0.07124864793530339 0.05111237110665745 0.3701050260739608
0.07410207317437491 0.054292277334035306 0.40644948287923377
0.07288876210515505 0.054828891102835474 0.42291077656387455
0.06809747144659203 0.05286215751270348 0.4183983015801557
0.06379735178070038 0.05136909001753715 0.4151821776238109
0.058673126740986487 0.04904192048185325 0.4038501173716448
0.05392548494425735 0.04679543184331481 0.39187616960831995
0.05179066390602386 0.04664364345303363 0.39658702629445164
0.05524773795978248 0.05194397098632856 0.4477697913506527
0.05214732549754751 0.05139299245319444 0.4497292317558091
0.04701259054437698 0.04855795210462099 0.4280455050365134
0.04446774357303519 0.04824580015155068 0.42777185691502223
0.04335056423081798 0.04959028668474212 0.44152376848840375
0.04162011655267721 0.05046120701985852 0.4503220449581487
0.040242908207640773 0.05205618856901606 0.4646998511334681
0.03817085370674144 0.05309383657481159 0.4730962019095321
0.03556256236839955 0.05365754072574453 0.4762029741857177
0.03261495121049633 0.05422545027010428 0.47795799235306385
0.02963202886933664 0.054554263434520044 0.4763179881660194
0.027017725562197687 0.055552427397731856 0.47983034622955506
0.024583904281934212 0.05692925429094139 0.4859288019859794
0.021664320035558845 0.0569636078844088 0.4801145598478289
0.019829089467552585 0.05967116167224256 0.4963732637801588
0.01818234555029192 0.06311341312197881 0.5180510240421308
0.01652166056558117 0.06667818339953371 0.540087593634561
0.015190059032590268 0.0718704132335843 0.5746167510395553
0.013789495472491852 0.07717080262087243 0.6092910571273011
0.012116196769927406 0.08097574351164051 0.6317244852219399
0.010380476005297606 0.08495337665668881 0.6560739366108751
0.008804344614653781 0.08736706241273484 0.667708306182391
0.007398172351013201 0.08997187417244511 0.6811072757421586
0.007251102892834806 0.10938476192562659 0.8209871976793549
0.006496403468051229 0.12330936717220864 0.9184180663902548
0.006235334148961035 0.15163221864284507 1.1217164943497349
0.005126085555744995 0.16370774058911064 1.2038563136074563
0.0039448589807081925 0.17165745145446193 1.2558221363358495
0.0028572998216199238 0.1798386014399488 1.3098773705571567
0.0018236506295784352 0.18514908695505522 1.3435317460457452
0.0009229070440250985 0.19456554015478356 1.4074800089278061
0.01137865278245317 0.003874576300971084 0.018656366912284127
0.019407052936478025 0.009180640739211971 0.04490318889970041
0.0302855856007124 0.017165595532418726 0.08599990761362755
0.03852803694050259 0.0240763737959572 0.1246883166909509
0.045617456831393045 0.02998890353401367 0.16174994996982517
0.050677896098020606 0.03426727485146025 0.19310093139317433
0.0523079689911702 0.03596014050140861 0.21173864188042119
0.057931448180077894 0.0401309343474549 0.2470219694887253
0.06174275848031648 0.043011974128397676 0.2763595290767534
0.06534751878123327 0.045752820663514 0.30679914963671784
0.06904473201622517 0.04879178249363714 0.34051839244297544
0.07124864793530339 0.05111237110665745 0.3701050260739608
0.07410207317437491 0.054292277334035306 0.40644948287923377
0.07288876210515505 0.054828891102835474 0.42291077656387455
0.06809747144659203 0.05286215751270348 0.4183983015801557
0.06379735178070038 0.05136909001753715 0.4151821776238109
0.058673126740986487 0.04904192048185325 0.4038501173716448
0.05392548494425735 0.04679543184331481 0.39187616960831995
0.05179066390602386 0.04664364345303363 0.39658702629445164
0.05524773795978248 0.05194397098632856 0.4477697913506527
0.05214732549754751 0.05139299245319444 0.4497292317558091
0.04701259054437698 0.04855795210462099 0.4280455050365134
0.04446774357303519 0.04824580015155068 0.42777185691502223
0.04335056423081798 0.04959028668474212 0.44152376848840375
0.04162011655267721 0.05046120701985852 0.4503220449581487
0.040242908207640773 0.05205618856901606 0.4646998511334681