# vtk DataFile Version 4.0
[MyVLM domain - lattices] 
ASCII
DATASET UNSTRUCTURED_GRID
POINTS 152 float
0.0018916144324157278 0.008589829722844118 -0.005355823743456454
0.0010688609733395774 0.01282252314647821 -0.004890071946090362
0.00045780959861706216 0.016983592800794083 -0.004449688179459859
-0.00013255382275044122 0.021026166699374297 -0.003905892719278035
-0.0007201482309470062 0.024969924486092636 -0.003312754942711033
-0.0011946371146526612 0.028763705891815428 -0.0025297131655408703
-0.0014108622120167862 0.03230359771387949 -0.0012712682098672112
-0.0013224843579428829 0.03567622847153956 0.00022457002377673007
-0.0010167791708201568 0.039008044260691 0.001610393742140267
-0.0006138083932142036 0.04221447064693104 0.0031185692940081918
-0.00020084691410191335 0.045334559835249394 0.004641801627991274
0.0001698744379422134 0.048417373377886645 0.006045295237145156
0.0004739400232210948 0.05143771630227519 0.0073982727396831325
0.0007082255455298663 0.05436760961773785 0.008777605780709798
0.0008836440760600275 0.05721107423352341 0.010172247002858561
0.001017516815515788 0.05998837172459774 0.011526528186428046
0.0011275777072549662 0.06271805974400597 0.01278946259871867
0.0012277625198140337 0.06540477571008775 0.013948309037557663
0.00132638558954348 0.06803695069283525 0.015034852876908892
0.0014271324949937316 0.07059754375120247 0.016095913717502373
0.0015306083418583354 0.07307530568319158 0.017162398487814153
0.0016355657532635378 0.07546998114940894 0.018235008727062452
0.0017398364473795213 0.07778845801734138 0.01929482017485904
0.0018410131526058282 0.08003870362063478 0.020319942761918605
0.001936923789896676 0.08222657359514171 0.02129428826095969
0.0020259353317291845 0.0843553386121193 0.022208870576556784
0.0021071205190511294 0.08642586364631133 0.023061313210133064
0.002180316672546981 0.08843689990879589 0.023855047181053086
0.0022461021518325993 0.09038544776802303 0.02459831390926699
0.0023056987632523672 0.09226720737544211 0.025302927131574754
0.0023607022647827588 0.09407748209372467 0.025981790752983774
0.0024126938092907785 0.09581239154728279 0.026645566017800756
0.0024629658139780817 0.09746964331306977 0.02730055130658235
0.0025123806343549317 0.0990488255542128 0.027947878131837172
0.0025613283706516186 0.10055135244653661 0.028583661077419577
0.0026097549007438213 0.10198017458156632 0.029199793459740307
0.0026572361369983943 0.10333934343971996 0.029785143927835437
0.002703078927872171 0.1046332135142375 0.030327748609854988
0.0027464329900004744 0.1058645222781692 0.030820086360407044
0.0027864017842759935 0.10703279876976961 0.03126345113625255
0.0028221433614242725 0.10813420683573288 0.031668382681976935
0.0028529549202113143 0.10916236013451887 0.03205242732675471
0.002878337166053322 0.11010941212418715 0.032437143267388016
0.0028980365508205295 0.1109657080497884 0.0328490567250904
0.0029120651374179955 0.11171934045821272 0.0333208831584046
0.002920699186668212 0.11235817894618959 0.03388595057640522
0.0029244586304951574 0.11287310214361705 0.03456931973748187
0.002924070395798875 0.1132609765399373 0.03537959989113572
0.0029204190990956736 0.1135265351038853 0.0363037873126406
0.0029144889643634465 0.11368279141173254 0.03730612749504406
0.002907300946956263 0.1137499865914759 0.038331008396230465
0.006212993241944028 0.0035979365234371443 0.00835929010224338
0.0072288922610571306 0.006441237283120708 0.012642366870569475
0.007974780507892725 0.009729318906467537 0.015481265539741596
0.008270023946844132 0.013269666249721803 0.017404917120131945
0.008140225139500825 0.016972866547209794 0.01865898116644003
0.007751519283975376 0.02070741010560956 0.019604777591507323
0.007318662739924205 0.0243128913435012 0.02068301710823948
0.0069707766105224795 0.027838295975918876 0.021759112570704314
0.006702226685381192 0.03138474791379519 0.02255522831704756
0.006460614097576536 0.03484922394329693 0.023354418300955606
0.006208498480286784 0.03825629858617997 0.02408916457881032
0.005928720355726676 0.04164355184197645 0.024656216950473965
0.00562110152420414 0.04497678633581513 0.02514953193120995
0.005297776270156929 0.048220945298177345 0.025665427203669825
0.004977662142563614 0.051374480922388895 0.026208155331740642
0.004680078492205027 0.05445324552215717 0.0267341624414652
0.0044193472589770496 0.05747222913324153 0.02720226374807792
0.0042022226504668725 0.060433168288685564 0.02760768816625327
0.004028605706719037 0.06332222784921764 0.027988447428735228
0.003894567528214928 0.06612078212553577 0.0283957151963027
0.003794542923454683 0.06881665272139871 0.028862951337633693
0.0037223892098821663 0.0714092285885587 0.029391834693991047
0.0036720478837599236 0.07390553071565739 0.02996307525761975
0.0036379885391020494 0.0763140689205499 0.030553292496119027
0.003615480687410345 0.07864157584579942 0.031143988626073305
0.003600729157216099 0.08089246329370646 0.03172304232028289
0.0035909263662617956 0.08306893688123651 0.03228439369593902
0.003584242976167935 0.0851712289956597 0.032827404274264574
0.00357976601221264 0.08719790791666875 0.03335600767447468
0.003577378730160166 0.08914627959578249 0.03387760573393831
0.0035774796054096774 0.09101324742144769 0.03440070632297477
0.003580588564800478 0.09279648693062138 0.03493169585130695
0.0035870678637920984 0.09449518447209389 0.03547280980726083
0.0035969747054953923 0.09611030223889387 0.03602140458721692
0.0036100119296844893 0.09764450157243694 0.036570168215730406
0.0036255480079795204 0.09910183666628422 0.03710796188753802
0.0036426825552804717 0.1004873076089314 0.03762104797240255
0.0036603380175139954 0.10180605610449572 0.03809529975436439
0.003677362157174432 0.10306144374618706 0.03852148133198599
0.0036926294639041822 0.10425346323646512 0.038899612755094536
0.0037051326977571345 0.10537858815947831 0.039239382771613845
0.003714058455611533 0.1064305979330779 0.03955788229053351
0.003718842962038476 0.10740168065956197 0.03987657432439251
0.003719206248598144 0.10828210036488174 0.04022220824204644
0.003715164522496519 0.1090597696184736 0.04062799398602783
0.0037070218583473346 0.10972229770225549 0.04112797477447816
0.003695343396461056 0.11026024180072919 0.04174809452975482
0.003680913018392471 0.11067010530428957 0.04249796010779242
0.0036646790161518838 0.11095623568211922 0.043365626935180236
0.003647691596346039 0.11113125717392948 0.04431641019837334
0.0036310361855396924 0.11121503517601775 0.04529573016961629
0.005410766489344848 0.006441234286124486 0.0065948844036114685
0.005892211109850776 0.00978972306450463 0.009378892138172876
0.006132458642509649 0.01337583937109205 0.011287870885110341
0.006047255650667177 0.017090461197032714 0.012621630899715859
0.005720055990603616 0.020846807542045764 0.013618601020698768
0.005325630843128663 0.024516025994128398 0.01463280034047904
0.005016871435172548 0.028054173517959913 0.015784961356342615
0.004834968294868498 0.03154417555017159 0.016847248303646575
0.004732241848104854 0.0349905538098623 0.017807237861269747
0.00464908530328423 0.03835819975882639 0.018761389945162157
0.004547585503985086 0.04168143556220066 0.01961540518162366
0.004411660012619469 0.04496451302669208 0.020357601827735005
0.004242349868979272 0.048174815102748805 0.02107759449062903
0.00405227310746894 0.05129562031412001 0.02182132504872497
0.003859297849485217 0.05433532816146991 0.022565716063613014
0.0036804214720396232 0.05731035692934998 0.023265658669222013
0.003527506244425096 0.06022987846498438 0.023895953422408737
0.003405829147614405 0.06308848935207909 0.02447144608742901
0.003315379723667389 0.06587044054603726 0.02503540680869063
0.003253134023982613 0.0685606442468997 0.02562928897589072
0.003214621311891553 0.07115286634530911 0.026270220663718855
0.0031948391851961662 0.07365033963492483 0.02694931984459424
0.0031888698585714084 0.07606074506832476 0.027645483274749253
0.0031922930777549615 0.07839152643935307 0.028338259298681917
0.003201436081938149 0.08064800370322234 0.029013031459573135
0.0032135028026517493 0.08283317534790745 0.029661561479419448
0.003226618152360912 0.08494790764822449 0.03028146928772462
0.0032398057236901635 0.08699121980172553 0.030875449617067233
0.003252904392775423 0.08896065221010235 0.03145026015826009
0.003266372004343082 0.09085290881510716 0.032014956756912225
0.0032809500730880004 0.09266488458715184 0.03257807041170371
0.0032973286136308236 0.0943946311335623 0.033144954287510804
0.0033159342695244357 0.09604186612503074 0.0337163840777316
0.0033368336138182735 0.09760807367934274 0.03428828220226234
0.0033597203855484335 0.0990963177180333 0.03485223060587065
0.0033839603409402744 0.10051086885586664 0.03539649587092469
0.003408672097906746 0.10185658101177986 0.035907741964748906
0.0034328265552422406 0.10313752941805687 0.03637477227866415
0.0034553512046890385 0.1043552552494869 0.036793352469737646
0.003475228953835527 0.1055078949741666 0.03716860254979433
0.0034915839677176984 0.10659051565599005 0.03751407564939672
0.0035037495424018335 0.10759607600457821 0.0378491175548651
0.0035113151685979642 0.10851580790591332 0.03819781846147441
0.003514151750190315 0.1093388323072584 0.03859006832096473
0.003512415433327221 0.11005296517082369 0.039059342502040975
0.0035065316976985676 0.11064736244984509 0.03963543477832326
0.0034971622838568268 0.11111563999982633 0.04033588544265742
0.003485158199815951 0.11145831682538114 0.04115926854158679
0.0034715024876191118 0.1116839756354705 0.042082003276043174
0.003457246657122113 0.11180895688163126 0.04305919462440543

CELLS 100 350
4 0 51 52 1
4 1 52 53 2
4 2 53 54 3
4 3 54 55 4
4 4 55 56 5
4 5 56 57 6
4 6 57 58 7
4 7 58 59 8
4 8 59 60 9
4 9 60 61 10
4 10 61 62 11
4 11 62 63 12
4 12 63 64 13
4 13 64 65 14
4 14 65 66 15
4 15 66 67 16
4 16 67 68 17
4 17 68 69 18
4 18 69 70 19
4 19 70 71 20
4 20 71 72 21
4 21 72 73 22
4 22 73 74 23
4 23 74 75 24
4 24 75 76 25
4 25 76 77 26
4 26 77 78 27
4 27 78 79 28
4 28 79 80 29
4 29 80 81 30
4 30 81 82 31
4 31 82 83 32
4 32 83 84 33
4 33 84 85 34
4 34 85 86 35
4 35 86 87 36
4 36 87 88 37
4 37 88 89 38
4 38 89 90 39
4 39 90 91 40
4 40 91 92 41
4 41 92 93 42
4 42 93 94 43
4 43 94 95 44
4 44 95 96 45
4 45 96 97 46
4 46 97 98 47
4 47 98 99 48
4 48 99 100 49
4 49 100 101 50
1 102
1 103
1 104
1 105
1 106
1 107
1 108
1 109
1 110
1 111
1 112
1 113
1 114
1 115
1 116
1 117
1 118
1 119
1 120
1 121
1 122
1 123
1 124
1 125
1 126
1 127
1 128
1 129
1 130
1 131
1 132
1 133
1 134
1 135
1 136
1 137
1 138
1 139
1 140
1 141
1 142
1 143
1 144
1 145
1 146
1 147
1 148
1 149
1 150
1 151

CELL_TYPES 100
9
9
9
9
9
9
9
9
9
9
9
9
9
9
9
9
9
9
9
9
9
9
9
9
9
9
9
9
9
9
9
9
9
9
9
9
9
9
9
9
9
9
9
9
9
9
9
9
9
9
1
1
1
1
1
1
1
1
1
1
1
1
1
1
1
1
1
1
1
1
1
1
1
1
1
1
1
1
1
1
1
1
1
1
1
1
1
1
1
1
1
1
1
1
1
1
1
1
1
1

CELL_DATA 100

VECTORS S float
2.1500701735e-22 -1.915211744857e-20 -8.17827004001e-21
4.35099768234425e-18 1.746837822166427e-17 5.65882666209516e-18
1.9846906126719e-19 -1.02185427985993e-18 -5.067305001531399e-19
-3.9340041627195997e-19 1.7744214847883658e-17 7.89262691661637e-18
3.073608410281e-20 -4.11186932024825e-18 -1.85108427528124e-18
-3.30289891576e-21 1.2720014691590799e-18 5.8387930543797e-19
-2.168621829328e-20 -4.099192398236994e-17 -1.918835146084294e-17
8.142030498297e-20 2.8208440162797377e-17 1.345981098701062e-17
-4.396307630031799e-19 -9.104860120126967e-17 -4.42549766144703e-17
3.680142506527e-19 5.710218002411211e-17 2.822491572666802e-17
-9.5729425423927e-19 -1.223496540539418e-16 -6.139806302924446e-17
-6.8020239446856e-19 -7.626140162767241e-17 -3.87835215783906e-17
-8.702753463974e-20 -8.83370911312121e-18 -4.54402253582806e-18
-2.5950605135843997e-19 -2.452545092534044e-17 -1.2738422430479809e-17
-6.9538381807338e-19 -6.426137143600484e-17 -3.361470420344358e-17
1.7107462931392e-18 1.5503656936847738e-16 8.172922045492206e-17
1.8000991440212e-19 1.622271305888143e-17 8.6084031578776e-18
1.3587771070401798e-18 1.2333374085216062e-16 6.581628363704603e-17
5.1410881873892e-19 4.6818573730280345e-17 2.510572012249291e-17
5.6093234577617e-19 4.968601231627812e-17 2.675250948052856e-17
1.3053722490977e-19 1.1762982512728329e-17 6.3566292674402e-18
-4.773992699767e-19 -4.454664378884094e-17 -2.41479685199944e-17
-2.4253639186113e-19 -2.334036048993274e-17 -1.268137737998188e-17
-2.2397137394687997e-19 -2.199136018244974e-17 -1.197014993896389e-17
1.02539438300623e-18 1.0374476939804866e-16 5.653684977395843e-17
3.484967551892e-19 3.654946825910844e-17 1.9927957160344787e-17
-7.4336241323621e-19 -8.205371495219883e-17 -4.4728438463293156e-17
1.1062426488982499e-18 1.302531404067997e-16 7.093445988740544e-17
7.4534305466149995e-19 9.478433043245523e-17 5.1531934342745585e-17
1.4306500542575998e-19 1.9902576461199298e-17 1.079515972467055e-17
9.04685011958e-20 1.372248487435339e-17 7.42111271069086e-18
1.2468930711305e-19 2.078908300062187e-17 1.1222766852563639e-17
8.526063021451e-20 1.584170481057914e-17 8.51702873949905e-18
-2.2163271562297e-19 -4.492757690972749e-17 -2.40523472911379e-17
1.7535383204263e-19 3.848423678532211e-17 2.0514233616922418e-17
2.9558071306229996e-20 6.987640886564279e-18 3.70876817729013e-18
1.2261914248995e-19 3.059863419427715e-17 1.617155542568352e-17
1.5651862323857999e-19 4.0922489794585677e-17 2.1538322562259788e-17
-1.0492143424116999e-19 -2.888682078897579e-17 -1.515123549988894e-17
-5.773311318044e-20 -1.638779392985448e-17 -8.56293057456147e-18
2.913015975339e-20 8.620197365197019e-18 4.48836377573357e-18
2.7235945778781e-19 8.043668324938044e-17 4.174588507032797e-17
1.501776914443e-20 3.65774108104378e-18 1.8927030051127697e-18
1.6611979997279998e-20 3.3811923276558998e-18 1.74493207199529e-18
2.4025533878870997e-19 3.745936200929718e-17 1.9285716293327448e-17
6.1243793727764e-19 8.229857070686997e-17 4.228279484918884e-17
1.2153512775979e-19 1.400216539159318e-17 7.18205954546104e-18
1.20325204533495e-18 1.0727328182909714e-16 5.493731256062991e-17
-2.3394720991829998e-20 -1.43426891229041e-18 -7.3356078134482e-19
1.2588532793841599e-18 3.790788047265619e-17 1.936821824702189e-17
2.1500701735e-22 -1.915211744857e-20 -8.17827004001e-21
4.35099768234425e-18 1.746837822166427e-17 5.65882666209516e-18
1.9846906126719e-19 -1.02185427985993e-18 -5.067305001531399e-19
-3.9340041627195997e-19 1.7744214847883658e-17 7.89262691661637e-18
3.073608410281e-20 -4.11186932024825e-18 -1.85108427528124e-18
-3.30289891576e-21 1.2720014691590799e-18 5.8387930543797e-19
-2.168621829328e-20 -4.099192398236994e-17 -1.918835146084294e-17
8.142030498297e-20 2.8208440162797377e-17 1.345981098701062e-17
-4.396307630031799e-19 -9.104860120126967e-17 -4.42549766144703e-17
3.680142506527e-19 5.710218002411211e-17 2.822491572666802e-17
-9.5729425423927e-19 -1.223496540539418e-16 -6.139806302924446e-17
-6.8020239446856e-19 -7.626140162767241e-17 -3.87835215783906e-17
-8.702753463974e-20 -8.83370911312121e-18 -4.54402253582806e-18
-2.5950605135843997e-19 -2.452545092534044e-17 -1.2738422430479809e-17
-6.9538381807338e-19 -6.426137143600484e-17 -3.361470420344358e-17
1.7107462931392e-18 1.5503656936847738e-16 8.172922045492206e-17
1.8000991440212e-19 1.622271305888143e-17 8.6084031578776e-18
1.3587771070401798e-18 1.2333374085216062e-16 6.581628363704603e-17
5.1410881873892e-19 4.6818573730280345e-17 2.510572012249291e-17
5.6093234577617e-19 4.968601231627812e-17 2.675250948052856e-17
1.3053722490977e-19 1.1762982512728329e-17 6.3566292674402e-18
-4.773992699767e-19 -4.454664378884094e-17 -2.41479685199944e-17
-2.4253639186113e-19 -2.334036048993274e-17 -1.268137737998188e-17
-2.2397137394687997e-19 -2.199136018244974e-17 -1.197014993896389e-17
1.02539438300623e-18 1.0374476939804866e-16 5.653684977395843e-17
3.484967551892e-19 3.654946825910844e-17 1.9927957160344787e-17
-7.4336241323621e-19 -8.205371495219883e-17 -4.4728438463293156e-17
1.1062426488982499e-18 1.302531404067997e-16 7.093445988740544e-17
7.4534305466149995e-19 9.478433043245523e-17 5.1531934342745585e-17
1.4306500542575998e-19 1.9902576461199298e-17 1.079515972467055e-17
9.04685011958e-20 1.372248487435339e-17 7.42111271069086e-18
1.2468930711305e-19 2.078908300062187e-17 1.1222766852563639e-17
8.526063021451e-20 1.584170481057914e-17 8.51702873949905e-18
-2.2163271562297e-19 -4.492757690972749e-17 -2.40523472911379e-17
1.7535383204263e-19 3.848423678532211e-17 2.0514233616922418e-17
2.9558071306229996e-20 6.987640886564279e-18 3.70876817729013e-18
1.2261914248995e-19 3.059863419427715e-17 1.617155542568352e-17
1.5651862323857999e-19 4.0922489794585677e-17 2.1538322562259788e-17
-1.0492143424116999e-19 -2.888682078897579e-17 -1.515123549988894e-17
-5.773311318044e-20 -1.638779392985448e-17 -8.56293057456147e-18
2.913015975339e-20 8.620197365197019e-18 4.48836377573357e-18
2.7235945778781e-19 8.043668324938044e-17 4.174588507032797e-17
1.501776914443e-20 3.65774108104378e-18 1.8927030051127697e-18
1.6611979997279998e-20 3.3811923276558998e-18 1.74493207199529e-18
2.4025533878870997e-19 3.745936200929718e-17 1.9285716293327448e-17
6.1243793727764e-19 8.229857070686997e-17 4.228279484918884e-17
1.2153512775979e-19 1.400216539159318e-17 7.18205954546104e-18
1.20325204533495e-18 1.0727328182909714e-16 5.493731256062991e-17
-2.3394720991829998e-20 -1.43426891229041e-18 -7.3356078134482e-19
1.2588532793841599e-18 3.790788047265619e-17 1.936821824702189e-17

SCALARS Gamma float
LOOKUP_TABLE default
0.00016654172213507692
-0.0009372558720945707
0.0015144893588401702
0.01817830751666524
0.055403219723186646
0.09543059972898782
0.14293590647680482
0.18635681424334424
0.2307157258421732
0.26339681619571875
0.28408752396793224
0.28953923034755763
0.2828774630819847
0.25978677518592824
0.2478532120560453
0.24017010701719893
0.22962152226543947
0.223835595015315
0.21907746619513632
0.21038374616896088
0.20910880174732466
0.20627028220989782
0.20114785970338891
0.1969688476191207
0.1933486969385435
0.19164515528407924
0.19171239934007236
0.19224090184261217
0.1938049032055292
0.19626001678969351
0.19543764090649735
0.20187824314615452
0.20033612066674245
0.19877553310939397
0.19700243733162498
0.19467272266423616
0.19182533775081292
0.18850654215016904
0.18525746506755317
0.17855045803889902
0.1735163964410915
0.1633035915008742
0.14802856072295117
0.12942260378987633
0.11488472815382969
0.10222836206465236
0.0886545826809806
0.06966561776573667
0.04815216795637937
0.0243643238127976
0.00016654172213507692
-0.0009372558720945707
0.0015144893588401702
0.01817830751666524
0.055403219723186646
0.09543059972898782
0.14293590647680482
0.18635681424334424
0.2307157258421732
0.26339681619571875
0.28408752396793224
0.28953923034755763
0.2828774630819847
0.25978677518592824
0.2478532120560453
0.24017010701719893
0.22962152226543947
0.223835595015315
0.21907746619513632
0.21038374616896088
0.20910880174732466
0.20627028220989782
0.20114785970338891
0.1969688476191207
0.1933486969385435
0.19164515528407924
0.19171239934007236
0.19224090184261217
0.1938049032055292
0.19626001678969351
0.19543764090649735
0.20187824314615452
0.20033612066674245
0.19877553310939397
0.19700243733162498
0.19467272266423616
0.19182533775081292
0.18850654215016904
0.18525746506755317
0.17855045803889902
0.1735163964410915
0.1633035915008742
0.14802856072295117
0.12942260378987633
0.11488472815382969
0.10222836206465236
0.0886545826809806
0.06966561776573667
0.04815216795637937
0.0243643238127976

VECTORS Ftot float
-0.0008670008762961451 -0.00011551357439713596 0.0002477196597074551
0.02731502887838687 -0.022285384459152457 0.04779116119886885
0.012808127174247693 -0.03920881995796422 0.08408358574486799
-0.1776515191257398 -0.08539384119140067 0.18312768340385388
-0.7430774928935563 -0.16060677546592098 0.3444223414673941
-1.5230204669519372 -0.2531869010876108 0.5429610615647532
-2.6259738739180905 -0.3612762663513618 0.7747594534063539
-3.8456309982682346 -0.47714725423380755 1.0232455888065393
-5.265459343126971 -0.60024801211239 1.2872360159971323
-6.572096872333122 -0.7058903396047606 1.5137867184032592
-7.676708686521486 -0.7885969048504381 1.691151519944191
-8.41159050026478 -0.8279996170931834 1.7756509090356056
-8.776309774041371 -0.8384176653107559 1.7979924855363918
-8.561145218436339 -0.795674240938474 1.706328916163756
-8.64121372712018 -0.767859911792867 1.6466808948216705
-8.822945699248208 -0.7460256401208497 1.5998571481167438
-8.85578200885377 -0.7122791671982758 1.527487603391495
-9.033528700987976 -0.6892046440167985 1.4780041287413588
-9.221839459979895 -0.6752816823304124 1.448146241050914
-9.2046324631677 -0.6718573206064391 1.4408026736355253
-9.493882406379617 -0.6631367481219433 1.4221013455917189
-9.698020841898138 -0.6395813289201562 1.3715865860979823
-9.76999851953774 -0.6146864895396308 1.3181994307614713
-9.86325690664588 -0.6005060688826965 1.287789420526939
-9.964418759504774 -0.5838916298278263 1.252159640993385
-10.147575227182179 -0.571661444349391 1.225931923595765
-10.414029029648248 -0.558271291212163 1.1972166475262969
-10.697596850107077 -0.5412044116055833 1.1606166060984828
-11.032316378617317 -0.5228745237021571 1.121308034637421
-11.41330286170005 -0.5027665877668476 1.0781864268669865
-11.594918227620655 -0.47851578164051495 1.0261804053011303
-12.207202184353404 -0.464309419833361 0.9957147640904256
-12.329741312609821 -0.4338375865507891 0.9303677067353365
-12.43683286048432 -0.4143201395737717 0.888512406622444
-12.517377968480156 -0.3984567124208863 0.8544931773100819
-12.549172316146759 -0.38404916543695145 0.8235960930954668
-12.533415078633016 -0.37654843157992873 0.8075107174301813
-12.472747506587128 -0.37067942021847317 0.7949245819489905
-12.403442697718637 -0.3609841321417066 0.7741329695720307
-12.085850294266582 -0.35320899917130416 0.7574591431091205
-11.865048704712015 -0.34386679169578194 0.7374247145250269
-11.271725081206254 -0.3378165798054378 0.7244499932556345
-10.304806917057707 -0.38575620821431017 0.8272568581451187
-9.080285692705305 -0.41804438502317587 0.8964990767623676
-8.117625554797122 -0.5002071955695477 1.0726977925875787
-7.27005170190542 -0.5314984133311018 1.1398020256284034
-6.341039549943803 -0.550545072077935 1.1806477171235714
-5.0084017493374375 -0.5717528674553569 1.2261279810792036
-3.477735503053834 -0.5859301258384325 1.2565312097955614
-1.768075201477299 -0.6135934114359024 1.3158553172033682
-0.0008670008762961451 -0.00011551357439713596 0.0002477196597074551
0.02731502887838687 -0.022285384459152457 0.04779116119886885
0.012808127174247693 -0.03920881995796422 0.08408358574486799
-0.1776515191257398 -0.08539384119140067 0.18312768340385388
-0.7430774928935563 -0.16060677546592098 0.3444223414673941
-1.5230204669519372 -0.2531869010876108 0.5429610615647532
-2.6259738739180905 -0.3612762663513618 0.7747594534063539
-3.8456309982682346 -0.47714725423380755 1.0232455888065393
-5.265459343126971 -0.60024801211239 1.2872360159971323
-6.572096872333122 -0.7058903396047606 1.5137867184032592
-7.676708686521486 -0.7885969048504381 1.691151519944191
-8.41159050026478 -0.8279996170931834 1.7756509090356056
-8.776309774041371 -0.8384176653107559 1.7979924855363918
-8.561145218436339 -0.795674240938474 1.706328916163756
-8.64121372712018 -0.767859911792867 1.6466808948216705
-8.822945699248208 -0.7460256401208497 1.5998571481167438
-8.85578200885377 -0.7122791671982758 1.527487603391495
-9.033528700987976 -0.6892046440167985 1.4780041287413588
-9.221839459979895 -0.6752816823304124 1.448146241050914
-9.2046324631677 -0.6718573206064391 1.4408026736355253
-9.493882406379617 -0.6631367481219433 1.4221013455917189
-9.698020841898138 -0.6395813289201562 1.3715865860979823
-9.76999851953774 -0.6146864895396308 1.3181994307614713
-9.86325690664588 -0.6005060688826965 1.287789420526939
-9.964418759504774 -0.5838916298278263 1.252159640993385
-10.147575227182179 -0.571661444349391 1.225931923595765
-10.414029029648248 -0.558271291212163 1.1972166475262969
-10.697596850107077 -0.5412044116055833 1.1606166060984828
-11.032316378617317 -0.5228745237021571 1.121308034637421
-11.41330286170005 -0.5027665877668476 1.0781864268669865
-11.594918227620655 -0.47851578164051495 1.0261804053011303
-12.207202184353404 -0.464309419833361 0.9957147640904256
-12.329741312609821 -0.4338375865507891 0.9303677067353365
-12.43683286048432 -0.4143201395737717 0.888512406622444
-12.517377968480156 -0.3984567124208863 0.8544931773100819
-12.549172316146759 -0.38404916543695145 0.8235960930954668
-12.533415078633016 -0.37654843157992873 0.8075107174301813
-12.472747506587128 -0.37067942021847317 0.7949245819489905
-12.403442697718637 -0.3609841321417066 0.7741329695720307
-12.085850294266582 -0.35320899917130416 0.7574591431091205
-11.865048704712015 -0.34386679169578194 0.7374247145250269
-11.271725081206254 -0.3378165798054378 0.7244499932556345
-10.304806917057707 -0.38575620821431017 0.8272568581451187
-9.080285692705305 -0.41804438502317587 0.8964990767623676
-8.117625554797122 -0.5002071955695477 1.0726977925875787
-7.27005170190542 -0.5314984133311018 1.1398020256284034
-6.341039549943803 -0.550545072077935 1.1806477171235714
-5.0084017493374375 -0.5717528674553569 1.2261279810792036
-3.477735503053834 -0.5859301258384325 1.2565312097955614
-1.768075201477299 -0.6135934114359024 1.3158553172033682

VECTORS D float
-7.072608671464284e-5 5.322202809526136e-5 -0.00012649632903096703
0.020529355376328325 -0.02158002073752437 0.050831171157575024
0.02731994554589354 -0.03488709571105671 0.08105233846823459
0.039266250870359905 -0.05699724187605035 0.1300984673254355
0.045533219793122554 -0.07206387069849937 0.16083369940101522
0.05224984749068417 -0.08892214767234581 0.19401557374885367
0.05348886511958277 -0.0971097103112707 0.2073942568722113
0.05707037924758777 -0.1098541488873055 0.22988194268290854
0.059300038285337725 -0.12087937604942735 0.24810380260634873
0.06229946157313095 -0.13424375431149366 0.2707779187067537
0.06676583385318967 -0.15232910532023272 0.30250952347312743
0.06866542182448884 -0.16626354852961323 0.32572557498634575
0.07219922738858894 -0.1858461909193131 0.3599075173385456
0.0714681097495204 -0.19569102459449952 0.375310540952343
0.06738763310989261 -0.1957208649903441 0.372766360146466
0.06333595516016417 -0.19577767873971424 0.37005550465145887
0.05817842915452717 -0.190876178101719 0.3584935227207508
0.053476559669197885 -0.18574247295396953 0.34696050943005613
0.05138445277001625 -0.18852137016030146 0.350513127101435
0.055236743466726405 -0.21370458029496214 0.3957439708674962
0.05265592602946955 -0.21464728250022744 0.3961248274920858
0.04749434442359413 -0.20402737080018019 0.3754378277140329
0.04465516252105838 -0.20481212536220236 0.37610727870903315
0.043547111079894806 -0.21163227302612447 0.38799248628710725
0.04181315018352839 -0.2160725356017671 0.39573341102971255
0.04040849286854416 -0.22310644061198415 0.40848841029738336
0.03830132941361899 -0.2272966064988552 0.4163360007722711
0.03563056674309748 -0.2288438104040951 0.4196579344158992
0.0327353121558834 -0.22928611308453448 0.4212597866836381
0.02964330013470342 -0.22826995029721153 0.42045873673521084
0.026889483677356135 -0.22956591418109026 0.4241657897468939
0.024298812954703423 -0.23250782488592162 0.43042814050734957
0.021193089795424357 -0.22906005412607147 0.4258403882504312
0.01921932937518602 -0.23677875382295535 0.44210387918048866
0.017438511507886247 -0.2472891138989008 0.4637597037040576
0.015643505886130473 -0.25809495960237 0.48614861169042317
0.014145278581289542 -0.27482014998001897 0.5198873290303618
0.012557432997639055 -0.2913093724183839 0.5533921833179066
0.010616611396650003 -0.30226189276436993 0.5762085354419084
0.008909285929521896 -0.31278808313283435 0.5985558617640248
0.007185125325789558 -0.3182585830534708 0.6111898750434798
0.005670561217567295 -0.32631159791936654 0.6287057554833275
0.0050260675992174365 -0.3911656774064858 0.7559069138456151
0.0038996093352905263 -0.43620809248176584 0.8452126584171508
0.002973190490419954 -0.5318658582175712 1.0330257427545941
0.0015577591752577958 -0.5701612326963217 1.1097303444561324
0.00020554576267334157 -0.5936636106054127 1.1574049238968298
-0.0010722585343937079 -0.618053751318604 1.2068654500497056
-0.002227422993581659 -0.6334002124347377 1.2385045203850544
-0.003330888398642431 -0.6619056261253968 1.295711982333887
-7.072608671464284e-5 5.322202809526136e-5 -0.00012649632903096703
0.020529355376328325 -0.02158002073752437 0.050831171157575024
0.02731994554589354 -0.03488709571105671 0.08105233846823459
0.039266250870359905 -0.05699724187605035 0.1300984673254355
0.045533219793122554 -0.07206387069849937 0.16083369940101522
0.05224984749068417 -0.08892214767234581 0.19401557374885367
0.05348886511958277 -0.0971097103112707 0.2073942568722113
0.05707037924758777 -0.1098541488873055 0.22988194268290854
0.059300038285337725 -0.12087937604942735 0.24810380260634873
0.06229946157313095 -0.13424375431149366 0.2707779187067537
0.06676583385318967 -0.15232910532023272 0.30250952347312743
0.06866542182448884 -0.16626354852961323 0.32572557498634575
0.07219922738858894 -0.1858461909193131 0.3599075173385456
0.0714681097495204 -0.19569102459449952 0.375310540952343
0.06738763310989261 -0.1957208649903441 0.372766360146466
0.06333595516016417 -0.19577767873971424 0.37005550465145887
0.05817842915452717 -0.190876178101719 0.3584935227207508
0.053476559669197885 -0.18574247295396953 0.34696050943005613
0.05138445277001625 -0.18852137016030146 0.350513127101435
0.055236743466726405 -0.21370458029496214 0.3957439708674962
0.05265592602946955 -0.21464728250022744 0.3961248274920858
0.04749434442359413 -0.20402737080018019 0.3754378277140329
0.04465516252105838 -0.20481212536220236 0.37610727870903315
0.043547111079894806 -0.21163227302612447 0.38799248628710725
0.04181315018352839 -0.2160725356017671 0.39573341102971255
0.04040849286854416 -0.22310644061198415 0.40848841029738336
0.03830132941361899 -0.2272966064988552 0.4163360007722711
0.03563056674309748 -0.2288438104040951 0.4196579344158992