# vtk DataFile Version 4.0
[MyVLM domain - lattices] 
ASCII
DATASET UNSTRUCTURED_GRID
POINTS 152 float
0.0018916144324157278 -0.004586790227574731 -0.009023933623794613
0.0010688609733395774 -0.0037539072172519655 -0.013199927427231174
0.00045780959861706216 -0.002952538127462336 -0.017306780980976388
-0.00013255382275044122 -0.002058478442439782 -0.021286576768151103
-0.0007201482309470062 -0.001123876595067509 -0.025163632002369537
-0.0011946371146526612 -1.3164692028227952e-5 -0.02887473033677791
-0.0014108622120167862 0.0015490134016525236 -0.03229147109691766
-0.0013224843579428829 0.003333103657908995 -0.035520897084036177
-0.0010167791708201568 0.005004040778434399 -0.0387192518127159
-0.0006138083932142036 0.006785935740255253 -0.041782030618092776
-0.00020084691410191335 0.008575305405977928 -0.04475748847962335
0.0001698744379422134 0.010242143202283756 -0.047706248458056606
0.0004739400232210948 0.011853212447877211 -0.05059717830659681
0.0007082255455298663 0.01348265373833128 -0.0533957056977481
0.0008836440760600275 0.015119812200141537 -0.05610679908062226
0.001017516815515788 0.016710997360604652 -0.05875549473381084
0.0011275777072549662 0.01820703391296709 -0.061364723479445084
0.0012277625198140337 0.01959563331681684 -0.0639402155580267
0.00132638558954348 0.02090745169448594 -0.06646767578494293
0.0014271324949937316 0.022187645268114425 -0.0689260474679965
0.0015306083418583354 0.023466022923428996 -0.07130143049549202
0.0016355657532635378 0.02474326127578483 -0.0735935093565077
0.0017398364473795213 0.026001108394524637 -0.07581079506608517
0.0018410131526058282 0.027218451907567155 -0.07796313248500772
0.001936923789896676 0.028379775160484885 -0.08005775714806387
0.0020259353317291845 0.029476411310441087 -0.0820987104704404
0.0021071205190511294 0.03050606828966977 -0.0840870612608896
0.002180316672546981 0.03147205522234491 -0.08602126644946737
0.0022461021518325993 0.0323823207322099 -0.08789761953205036
0.0023056987632523672 0.03324825884473539 -0.0897108073873044
0.0023607022647827588 0.03408231502275963 -0.09145502660059873
0.0024126938092907785 0.03489477174431954 -0.09312548237367992
0.0024629658139780817 0.03569170362489889 -0.09471934206682754
0.0025123806343549317 0.03647420197731104 -0.0962360967925193
0.0025613283706516186 0.03723851942413619 -0.09767749398154402
0.0026097549007438213 0.03797683729115955 -0.09904717954156468
0.0026572361369983943 0.038678419695353294 -0.10035015969705423
0.002703078927872171 0.03933172781010448 -0.10159181509122837
0.0027464329900004744 0.03992950769674701 -0.10277552829123897
0.0027864017842759935 0.040473007341125 -0.10390071735172955
0.0028221433614242725 0.040972392038123015 -0.10496264211784809
0.0028529549202113143 0.041444584741495316 -0.10595341128666036
0.002878337166053322 0.041910377741405776 -0.10686332925403237
0.0028980365508205295 0.042395354851449095 -0.10768046609176009
0.0029120651374179955 0.04293106923505117 -0.10839010831809903
0.002920699186668212 0.04354966484384319 -0.10897726696224018
0.0029244586304951574 0.04427531209267693 -0.10943067117463741
0.002924070395798875 0.04511631436681995 -0.1097464490231518
0.0029204190990956736 0.04606012993005007 -0.10993044881543033
0.0029144889643634465 0.047072274540014135 -0.10999875081776794
0.002907300946956263 0.048099111905751106 -0.10997636604339484
0.006212993241944028 0.008641061309724668 -0.002855685151014587
0.0072288922610571306 0.013155649667416214 -0.005314871555902892
0.007974780507892725 0.01627032066616289 -0.008343014713876867
0.008270023946844132 0.018495213773809572 -0.011702232684353326
0.008140225139500825 0.02006726090028008 -0.015282042303273508
0.007751519283975376 0.021334945202062056 -0.0189199432060292
0.007318662739924205 0.02272332008715483 -0.022417729733345434
0.0069707766105224795 0.024102579940727276 -0.025835931237489482
0.006702226685381192 0.025204759879066254 -0.029299501795853392
0.006460614097576536 0.02630285768538616 -0.03268114045146497
0.006208498480286784 0.027331754152924857 -0.03601121278913035
0.005928720355726676 0.028191867292499898 -0.03933615465301963
0.00562110152420414 0.02897381558886094 -0.04261370994972364
0.005297776270156929 0.02977049480801222 -0.045800560672144434
0.004977662142563614 0.030586006431310993 -0.048894794268115355
0.004680078492205027 0.03137834394061516 -0.05191599869873847
0.0044193472589770496 0.032107785739399645 -0.054882696448667556
0.0042022226504668725 0.03276973024658621 -0.05779703327039905
0.004028605706719037 0.03340083873696046 -0.06064191373074269
0.003894567528214928 0.03405046680428698 -0.06339432293835326
0.003794542923454683 0.03475088557517177 -0.06603921261975708
0.0037223892098821663 0.03550371424601592 -0.06857582773127228
0.0036720478837599236 0.036290348132847615 -0.07101284377951246
0.0036379885391020494 0.03708823735274647 -0.07336077594757391
0.003615480687410345 0.03787954130041067 -0.07562794344633496
0.003600729157216099 0.03865256928785642 -0.0778197977331316
0.0035909263662617956 0.0394014767241434 -0.07993906418547801
0.003584242976167935 0.04012564781398415 -0.08198602995343267
0.00357976601221264 0.04082887642533829 -0.08395892592731193
0.003577378730160166 0.041518301427552556 -0.08585442319766884
0.0035774796054096774 0.042202128428451176 -0.08766869542673517
0.003580588564800478 0.04288651694523693 -0.08939887038446871
0.0035870678637920984 0.0435736230451523 -0.09104394268020281
0.0035969747054953923 0.04426089704493576 -0.09260510125076817
0.0036100119296844893 0.04494128674460438 -0.09408563459102366
0.0036255480079795204 0.045604049071662905 -0.09549055227794598
0.0036426825552804717 0.04623593445813132 -0.0968260326865514
0.0036603380175139954 0.04682331807351053 -0.09809842917964276
0.003677362157174432 0.04735729214390938 -0.09931189552040258
0.0036926294639041822 0.047837876006836866 -0.10046642269160234
0.0037051326977571345 0.048274414194213064 -0.10155765326644585
0.003714058455611533 0.048683390419501475 -0.10257790076311023
0.003718842962038476 0.04908550517025202 -0.1035175123857234
0.003719206248598144 0.049506557479846364 -0.10436445784744654
0.003715164522496519 0.049978577427970655 -0.10510380127683061
0.0037070218583473346 0.050534398765805795 -0.10572023204425407
0.003695343396461056 0.051199043695653534 -0.10620208210515966
0.003680913018392471 0.05198177776685405 -0.10654503086293309
0.0036646790161518838 0.052871080765610284 -0.10675445028149144
0.003647691596346039 0.05383350013955314 -0.10684593954218932
0.0036310361855396924 0.054816395236638636 -0.10684404538420507
0.005410766489344848 0.007131179435824494 -0.005841941396472278
0.005892211109850776 0.010196433207002878 -0.008935045902193356
0.006132458642509649 0.012410698343751908 -0.012341137492977258
0.006047255650667177 0.014063133623095211 -0.015925379216675143
0.005720055990603616 0.015383697127491333 -0.019580539858381946
0.005325630843128663 0.01671383057215937 -0.023147402531477432
0.005016871435172548 0.018169977142900983 -0.026571668886682324
0.004834968294868498 0.019532395486965497 -0.029955805999597584
0.004732241848104854 0.020789103651505863 -0.03330540114659547
0.00464908530328423 0.022033134582645778 -0.03657707235243776
0.004547585503985086 0.02317353911806699 -0.03981322990801623
0.004411660012619469 0.02419905053678044 -0.0430191275716104
0.004242349868979272 0.025196099672103497 -0.046154461983743636
0.00405227310746894 0.02620899620705531 -0.049198571199893716
0.003859297849485217 0.027215482584565576 -0.05216183408937431
0.0036804214720396232 0.028172052539202023 -0.05506453795693425
0.003527506244425096 0.029054401898467683 -0.05791801602433395
0.003405829147614405 0.02987684899524285 -0.06071559154329936
0.003315379723667389 0.030681126698292836 -0.06343780415752842
0.003253134023982613 0.03150721566623996 -0.06606601057972745
0.003214621311891553 0.03237163545784711 -0.06859250761313598
0.0031948391851961662 0.033265819600862515 -0.0710212898693684
0.0031888698585714084 0.034169414594859254 -0.07336184834154401
0.0031922930777549615 0.03506269537844044 -0.07562338097684979
0.003201436081938149 0.03593156477946591 -0.077812461394613
0.0032135028026517493 0.03676807720451379 -0.07993279468589486
0.003226618152360912 0.03756993714079967 -0.08198545126588613
0.0032398057236901635 0.03833974358406527 -0.08396921920296894
0.003252904392775423 0.039084014141952235 -0.08588105928678713
0.003266372004343082 0.039811482929438285 -0.0877168987326394
0.0032809500730880004 0.040530377861017944 -0.0894729008009863
0.0032973286136308236 0.04124586191754827 -0.09114665795431526
0.0033159342695244357 0.04195868323405926 -0.09273782133153248
0.0033368336138182735 0.04266490909625846 -0.09424822478742986
0.0033597203855484335 0.0433564205205122 -0.0956816542662522
0.0033839603409402744 0.04402190094698694 -0.09704338676651389
0.003408672097906746 0.04464848813754792 -0.09833942004835815
0.0034328265552422406 0.045225383269888904 -0.09957478968532543
0.0034553512046890385 0.04574850243626385 -0.10075140003487291
0.003475228953835527 0.04622278374779973 -0.10186694841796529
0.0034915839677176984 0.046661298827595246 -0.1029153394366471
0.0035037495424018335 0.0470827061565202 -0.10388787249839922
0.0035113151685979642 0.047510240067893755 -0.10477371325566279
0.003514151750190315 0.047972728601243915 -0.10555941897283634
0.003512415433327221 0.04850245783252796 -0.10622993440544916
0.0035065316976985676 0.04912816304011227 -0.10677186007313985
0.0034971622838568268 0.04986676135587746 -0.10717730738775842
0.003485158199815951 0.05071687748678288 -0.10744691765898196
0.0034715024876191118 0.05165576839819431 -0.10759129613803008
0.003457246657122113 0.05264013407179258 -0.10763063395504326

CELLS 100 350
4 0 51 52 1
4 1 52 53 2
4 2 53 54 3
4 3 54 55 4
4 4 55 56 5
4 5 56 57 6
4 6 57 58 7
4 7 58 59 8
4 8 59 60 9
4 9 60 61 10
4 10 61 62 11
4 11 62 63 12
4 12 63 64 13
4 13 64 65 14
4 14 65 66 15
4 15 66 67 16
4 16 67 68 17
4 17 68 69 18
4 18 69 70 19
4 19 70 71 20
4 20 71 72 21
4 21 72 73 22
4 22 73 74 23
4 23 74 75 24
4 24 75 76 25
4 25 76 77 26
4 26 77 78 27
4 27 78 79 28
4 28 79 80 29
4 29 80 81 30
4 30 81 82 31
4 31 82 83 32
4 32 83 84 33
4 33 84 85 34
4 34 85 86 35
4 35 86 87 36
4 36 87 88 37
4 37 88 89 38
4 38 89 90 39
4 39 90 91 40
4 40 91 92 41
4 41 92 93 42
4 42 93 94 43
4 43 94 95 44
4 44 95 96 45
4 45 96 97 46
4 46 97 98 47
4 47 98 99 48
4 48 99 100 49
4 49 100 101 50
1 102
1 103
1 104
1 105
1 106
1 107
1 108
1 109
1 110
1 111
1 112
1 113
1 114
1 115
1 116
1 117
1 118
1 119
1 120
1 121
1 122
1 123
1 124
1 125
1 126
1 127
1 128
1 129
1 130
1 131
1 132
1 133
1 134
1 135
1 136
1 137
1 138
1 139
1 140
1 141
1 142
1 143
1 144
1 145
1 146
1 147
1 148
1 149
1 150
1 151

CELL_TYPES 100
9
9
9
9
9
9
9
9
9
9
9
9
9
9
9
9
9
9
9
9
9
9
9
9
9
9
9
9
9
9
9
9
9
9
9
9
9
9
9
9
9
9
9
9
9
9
9
9
9
9
1
1
1
1
1
1
1
1
1
1
1
1
1
1
1
1
1
1
1
1
1
1
1
1
1
1
1
1
1
1
1
1
1
1
1
1
1
1
1
1
1
1
1
1
1
1
1
1
1
1

CELL_DATA 100

VECTORS S float
2.4428520229229164e-16 -2.7011120922674014e-16 4.95475909194683e-17
-4.2876844534344596e-18 5.5367484714070896e-18 -4.42252935596711e-18
1.15188685866154e-18 -4.8588004668626e-18 7.068803532583779e-18
3.3808185623100996e-19 -4.8662489866484994e-18 7.75913285826617e-18
-5.96722168609e-21 -1.3180000745162e-19 2.1882167488113e-19
7.785960634360999e-20 3.21965738818352e-18 -5.25539918037909e-18
-1.9839536778394998e-19 -8.94846106763245e-18 1.447710477544014e-17
8.2097293981247e-19 3.8058696930164226e-17 -6.106628616780902e-17
-1.14709184961194e-18 -5.3331440357702144e-17 8.493392095341521e-17
1.62660572050141e-18 7.532134865154198e-17 -1.1899519275837052e-16
-1.8102409983373e-19 -8.3546587997478e-18 1.310434277178138e-17
1.02649085021765e-18 4.700101985345715e-17 -7.325448959549192e-17
1.3397575174488e-19 6.12250042259401e-18 -9.48939421626577e-18
-4.1220586080001e-19 -1.864529999660634e-17 2.87595342767013e-17
-4.713073330714699e-19 -2.1671605950316648e-17 3.327976849813739e-17
1.8603561167209999e-19 8.73120565273849e-18 -1.335347744975332e-17
9.9819271357647e-19 4.762834332915925e-17 -7.256601060878439e-17
1.0651833413312299e-18 5.215403145241182e-17 -7.917049123845888e-17
-9.4851172246952e-19 -4.7080225375706687e-17 7.121877063334053e-17
-2.2090175512784297e-18 -1.0877658138885755e-16 1.6400154090120527e-16
8.2935996009777e-19 4.169822855154008e-17 -6.266165081936371e-17
9.4217586880206e-19 4.998429638569033e-17 -7.487148763469916e-17
3.8225559443946996e-19 2.0630589910296328e-17 -3.079741062498801e-17
1.07046580534063e-18 5.948214076988827e-17 -8.864464551632233e-17
1.109106297975e-19 6.39398161814559e-18 -9.5174557142889e-18
2.4713103945958e-19 1.4829652645940518e-17 -2.206040841154847e-17
-4.5568224614394e-19 -2.8783541958394757e-17 4.281715428970953e-17
-3.4028629886003e-19 -2.283555121994638e-17 3.398894502741438e-17
5.83756290457e-21 4.1989906128073998e-19 -6.257111123555499e-19
-2.6748192825930996e-19 -2.079676047205054e-17 3.104233211867261e-17
-1.0292387095125e-19 -8.596605463450619e-18 1.2859242984128569e-17
1.9558117182683e-19 1.7890836059017588e-17 -2.6849542335140308e-17
-3.684935007091e-20 -3.6656023866705994e-18 5.51789469423658e-18
7.38644416014e-20 7.85544162787549e-18 -1.1862939705281379e-17
7.938801777279e-20 8.96181438871756e-18 -1.357835552908308e-17
-4.4284625800974e-19 -5.2814629627268825e-17 8.028638642823075e-17
-4.0728876879473995e-19 -5.034868405584568e-17 7.67887231407788e-17
-8.181271810518e-20 -1.039407066933361e-17 1.590306306491617e-17
6.07422177429e-20 7.96650811997992e-18 -1.222633530165514e-17
-8.539641120189e-20 -1.136325266420738e-17 1.749045729064434e-17
-2.1041445726189998e-19 -2.8679672795497757e-17 4.4265717958111197e-17
-1.6396962653466998e-19 -2.225245756273735e-17 3.4433838305120067e-17
-6.3952182229673e-19 -7.078162504627096e-17 1.0975554926128226e-16
-1.3722392980278e-19 -1.2377036048294759e-17 1.923524404180253e-17
-8.829218552472899e-19 -5.931041193806835e-17 9.236213536587482e-17
8.454786369639699e-19 4.577599389255998e-17 -7.141333903101763e-17
-1.43111352977613e-18 -6.486399240125485e-17 1.0135036946181934e-16
1.2503767238817e-19 4.44836522206288e-18 -6.9601110716262e-18
1.7716375304068497e-18 4.7727207358134446e-17 -7.476414186012714e-17
-3.95154085791233e-18 -5.583444205593433e-17 8.756044649936553e-17
2.4428520229229164e-16 -2.7011120922674014e-16 4.95475909194683e-17
-4.2876844534344596e-18 5.5367484714070896e-18 -4.42252935596711e-18
1.15188685866154e-18 -4.8588004668626e-18 7.068803532583779e-18
3.3808185623100996e-19 -4.8662489866484994e-18 7.75913285826617e-18
-5.96722168609e-21 -1.3180000745162e-19 2.1882167488113e-19
7.785960634360999e-20 3.21965738818352e-18 -5.25539918037909e-18
-1.9839536778394998e-19 -8.94846106763245e-18 1.447710477544014e-17
8.2097293981247e-19 3.8058696930164226e-17 -6.106628616780902e-17
-1.14709184961194e-18 -5.3331440357702144e-17 8.493392095341521e-17
1.62660572050141e-18 7.532134865154198e-17 -1.1899519275837052e-16
-1.8102409983373e-19 -8.3546587997478e-18 1.310434277178138e-17
1.02649085021765e-18 4.700101985345715e-17 -7.325448959549192e-17
1.3397575174488e-19 6.12250042259401e-18 -9.48939421626577e-18
-4.1220586080001e-19 -1.864529999660634e-17 2.87595342767013e-17
-4.713073330714699e-19 -2.1671605950316648e-17 3.327976849813739e-17
1.8603561167209999e-19 8.73120565273849e-18 -1.335347744975332e-17
9.9819271357647e-19 4.762834332915925e-17 -7.256601060878439e-17
1.0651833413312299e-18 5.215403145241182e-17 -7.917049123845888e-17
-9.4851172246952e-19 -4.7080225375706687e-17 7.121877063334053e-17
-2.2090175512784297e-18 -1.0877658138885755e-16 1.6400154090120527e-16
8.2935996009777e-19 4.169822855154008e-17 -6.266165081936371e-17
9.4217586880206e-19 4.998429638569033e-17 -7.487148763469916e-17
3.8225559443946996e-19 2.0630589910296328e-17 -3.079741062498801e-17
1.07046580534063e-18 5.948214076988827e-17 -8.864464551632233e-17
1.109106297975e-19 6.39398161814559e-18 -9.5174557142889e-18
2.4713103945958e-19 1.4829652645940518e-17 -2.206040841154847e-17
-4.5568224614394e-19 -2.8783541958394757e-17 4.281715428970953e-17
-3.4028629886003e-19 -2.283555121994638e-17 3.398894502741438e-17
5.83756290457e-21 4.1989906128073998e-19 -6.257111123555499e-19
-2.6748192825930996e-19 -2.079676047205054e-17 3.104233211867261e-17
-1.0292387095125e-19 -8.596605463450619e-18 1.2859242984128569e-17
1.9558117182683e-19 1.7890836059017588e-17 -2.6849542335140308e-17
-3.684935007091e-20 -3.6656023866705994e-18 5.51789469423658e-18
7.38644416014e-20 7.85544162787549e-18 -1.1862939705281379e-17
7.938801777279e-20 8.96181438871756e-18 -1.357835552908308e-17
-4.4284625800974e-19 -5.2814629627268825e-17 8.028638642823075e-17
-4.0728876879473995e-19 -5.034868405584568e-17 7.67887231407788e-17
-8.181271810518e-20 -1.039407066933361e-17 1.590306306491617e-17
6.07422177429e-20 7.96650811997992e-18 -1.222633530165514e-17
-8.539641120189e-20 -1.136325266420738e-17 1.749045729064434e-17
-2.1041445726189998e-19 -2.8679672795497757e-17 4.4265717958111197e-17
-1.6396962653466998e-19 -2.225245756273735e-17 3.4433838305120067e-17
-6.3952182229673e-19 -7.078162504627096e-17 1.0975554926128226e-16
-1.3722392980278e-19 -1.2377036048294759e-17 1.923524404180253e-17
-8.829218552472899e-19 -5.931041193806835e-17 9.236213536587482e-17
8.454786369639699e-19 4.577599389255998e-17 -7.141333903101763e-17
-1.43111352977613e-18 -6.486399240125485e-17 1.0135036946181934e-16
1.2503767238817e-19 4.44836522206288e-18 -6.9601110716262e-18
1.7716375304068497e-18 4.7727207358134446e-17 -7.476414186012714e-17
-3.95154085791233e-18 -5.583444205593433e-17 8.756044649936553e-17

SCALARS Gamma float
LOOKUP_TABLE default
-0.00010305689293951013
-0.00014989489100408014
-0.0006521064221968343
-0.004738326290412368
0.0161785549191523
0.06275079216900976
0.11216976962392156
0.15635505422072093
0.19984366820420033
0.23455061016508474
0.25443593868353315
0.2652591213361456
0.2662867764743696
0.24182010006877652
0.23030133232861774
0.22336403439103852
0.2128447155115053
0.20947198554743574
0.2046301927680784
0.1984771579458179
0.19793373899985525
0.19958738335980203
0.19302481885849782
0.1909224694821404
0.18907469785051734
0.18851963097430274
0.1890948955767033
0.18946396400307516
0.19064213894822696
0.19237933461766005
0.19088971549837608
0.19618242633282043
0.19372158375039483
0.19118108657305902
0.18842189900418024
0.1850310835914812
0.18109479450930654
0.1766301248706514
0.17173703117066058
0.16430671577118683
0.15827697108107405
0.14750814868122183
0.13249765942847186
0.11260371692079345
0.0963520587353305
0.08001194661874718
0.0678154843687303
0.05415841428024226
0.04119500476235395
0.02227338450952018
-0.00010305689293951013
-0.00014989489100408014
-0.0006521064221968343
-0.004738326290412368
0.0161785549191523
0.06275079216900976
0.11216976962392156
0.15635505422072093
0.19984366820420033
0.23455061016508474
0.25443593868353315
0.2652591213361456
0.2662867764743696
0.24182010006877652
0.23030133232861774
0.22336403439103852
0.2128447155115053
0.20947198554743574
0.2046301927680784
0.1984771579458179
0.19793373899985525
0.19958738335980203
0.19302481885849782
0.1909224694821404
0.18907469785051734
0.18851963097430274
0.1890948955767033
0.18946396400307516
0.19064213894822696
0.19237933461766005
0.19088971549837608
0.19618242633282043
0.19372158375039483
0.19118108657305902
0.18842189900418024
0.1850310835914812
0.18109479450930654
0.1766301248706514
0.17173703117066058
0.16430671577118683
0.15827697108107405
0.14750814868122183
0.13249765942847186
0.11260371692079345
0.0963520587353305
0.08001194661874718
0.0678154843687303
0.05415841428024226
0.04119500476235395
0.02227338450952018

VECTORS Ftot float
0.06466580055316688 0.06541026101008142 0.03776463180193389
0.03460396658145895 0.04973214844305497 0.02871286929097599
0.03289051088073207 0.048720340569454706 0.028128701742784694
0.10558316339851684 0.09235365045160374 0.053320404948877596
-0.18243598061477811 0.1992650953736068 0.11504575645404741
-0.9969161222391177 0.41854392479927405 0.24164644765054144
-2.065677188481027 0.6944929327761192 0.40096568168858193
-3.24396228721594 0.9504454192161169 0.5487399186344675
-4.59195644872237 1.2264537243873614 0.7080933879236565
-5.898715903528888 1.4495005645498984 0.8368695411333916
-6.936001453504498 1.5916369036052174 0.9189319947486074
-7.774347895166812 1.695222966879469 0.9787374362642896
-8.337357074921242 1.7350270551684754 1.001718337352795
-8.03942125159436 1.6236829602184455 0.9374337941607205
-8.09891528386663 1.5532219669358913 0.8967531207216698
-8.274373342181232 1.506823139400444 0.8699647451539966
-8.273587015230168 1.4407096882663526 0.831794126344674
-8.51800207602814 1.407810186058623 0.8127995898888367
-8.675752721388776 1.3802391067570652 0.7968814198322339
-8.745119400885441 1.3710278761739265 0.7915633133754911
-9.046813864968593 1.3591259631654187 0.7846917406961577
-9.445525030519908 1.317012322345367 0.7603774188321458
-9.436166247945618 1.2657583771854604 0.7307859397970435
-9.618640232836192 1.2400654268610871 0.7159521080109911
-9.799998490462706 1.2089345118716683 0.697978665861731
-10.036080821982088 1.1849709713390488 0.6841433092844866
-10.324344555768095 1.1579046976471363 0.6685165888825011
-10.594051832565075 1.1223483848571647 0.6479881421218205
-10.902106686969685 1.0852107947390401 0.6265467444700675
-11.23655412129294 1.0456132352693057 0.6036850828509643
-11.372486626881576 0.9984494660079821 0.576455067971942
-11.907680017564719 0.9747503757940593 0.5627723918573846
-11.96501719123065 0.918845999782312 0.5304959853181245
-12.001819227639654 0.8808961943442666 0.5085856549327752
-12.01023191207032 0.8495308144880912 0.4904768444295777
-11.963657003715731 0.8199729513339423 0.4734116041808598
-11.866264677311145 0.803531529035554 0.46391914459102507
-11.718872068560984 0.7907676829137031 0.45654993459667953
-11.527855222803229 0.771489904716213 0.44541990416498084
-11.149282569723638 0.7525763227832691 0.4345001425446557
-10.848945790827202 0.7309912585489164 0.42203799989847696
-10.205100302801968 0.7054282766863385 0.4072792054388281
-9.244951028917615 0.7974325882344065 0.46039791947771097
-7.9165074699241815 0.854330066327044 0.4932476937707058
-6.819413665402349 1.0059984117536198 0.5808134538302837
-5.697420771084166 1.0597437380835129 0.6118433324545316
-4.855185150463516 1.0943393891141582 0.6318171408898648
-3.8952658433870764 1.132835570594069 0.6540429216300638
-2.974223870477444 1.15500211837171 0.6668407839564895
-1.6113639296017261 1.2056229021848026 0.6960667071175681
0.06466580055316688 0.06541026101008142 0.03776463180193389
0.03460396658145895 0.04973214844305497 0.02871286929097599
0.03289051088073207 0.048720340569454706 0.028128701742784694
0.10558316339851684 0.09235365045160374 0.053320404948877596
-0.18243598061477811 0.1992650953736068 0.11504575645404741
-0.9969161222391177 0.41854392479927405 0.24164644765054144
-2.065677188481027 0.6944929327761192 0.40096568168858193
-3.24396228721594 0.9504454192161169 0.5487399186344675
-4.59195644872237 1.2264537243873614 0.7080933879236565
-5.898715903528888 1.4495005645498984 0.8368695411333916
-6.936001453504498 1.5916369036052174 0.9189319947486074
-7.774347895166812 1.695222966879469 0.9787374362642896
-8.337357074921242 1.7350270551684754 1.001718337352795
-8.03942125159436 1.6236829602184455 0.9374337941607205
-8.09891528386663 1.5532219669358913 0.8967531207216698
-8.274373342181232 1.506823139400444 0.8699647451539966
-8.273587015230168 1.4407096882663526 0.831794126344674
-8.51800207602814 1.407810186058623 0.8127995898888367
-8.675752721388776 1.3802391067570652 0.7968814198322339
-8.745119400885441 1.3710278761739265 0.7915633133754911
-9.046813864968593 1.3591259631654187 0.7846917406961577
-9.445525030519908 1.317012322345367 0.7603774188321458
-9.436166247945618 1.2657583771854604 0.7307859397970435
-9.618640232836192 1.2400654268610871 0.7159521080109911
-9.799998490462706 1.2089345118716683 0.697978665861731
-10.036080821982088 1.1849709713390488 0.6841433092844866
-10.324344555768095 1.1579046976471363 0.6685165888825011
-10.594051832565075 1.1223483848571647 0.6479881421218205
-10.902106686969685 1.0852107947390401 0.6265467444700675
-11.23655412129294 1.0456132352693057 0.6036850828509643
-11.372486626881576 0.9984494660079821 0.576455067971942
-11.907680017564719 0.9747503757940593 0.5627723918573846
-11.96501719123065 0.918845999782312 0.5304959853181245
-12.001819227639654 0.8808961943442666 0.5085856549327752
-12.01023191207032 0.8495308144880912 0.4904768444295777
-11.963657003715731 0.8199729513339423 0.4734116041808598
-11.866264677311145 0.803531529035554 0.46391914459102507
-11.718872068560984 0.7907676829137031 0.45654993459667953
-11.527855222803229 0.771489904716213 0.44541990416498084
-11.149282569723638 0.7525763227832691 0.4345001425446557
-10.848945790827202 0.7309912585489164 0.42203799989847696
-10.205100302801968 0.7054282766863385 0.4072792054388281
-9.244951028917615 0.7974325882344065 0.46039791947771097
-7.9165074699241815 0.854330066327044 0.4932476937707058
-6.819413665402349 1.0059984117536198 0.5808134538302837
-5.697420771084166 1.0597437380835129 0.6118433324545316
-4.855185150463516 1.0943393891141582 0.6318171408898648
-3.8952658433870764 1.132835570594069 0.6540429216300638
-2.974223870477444 1.15500211837171 0.6668407839564895
-1.6113639296017261 1.2056229021848026 0.6960667071175681

VECTORS D float
0.0641561067887907 0.06517518677045916 0.03899606316081671
0.03350342401684497 0.04978974536504059 0.029851963802039628
0.026561345241630743 0.05062996973656896 0.030472661330614114
0.048391713570367506 0.1095473289099122 0.06659561414744311
0.05052619002375639 0.13058665496661073 0.0800323966262469
0.051159565803222604 0.14702690201161286 0.09083220866642895
0.061106037098482655 0.1916183852589983 0.11927887805068511
0.06653259210553639 0.22426087828435368 0.1406618741157201
0.0724703788474103 0.25729433059054413 0.16253820937750496
0.0752192128117665 0.28377848337587397 0.18065376919605916
0.07566688387745951 0.3025011018461034 0.19390449916227867
0.07863343273858125 0.3328664220117317 0.2146732288435434
0.0795431277273598 0.3564657380335314 0.23111259076209204
0.07738378217477757 0.3669677228359709 0.23902060665357677
0.07127153822976605 0.35734599439074766 0.23371113225750442
0.06633548939014919 0.35120946870249675 0.2305633774692646
0.06188739402660774 0.34544411238586265 0.22758184159473369
0.057494296016373375 0.33775577926394135 0.22327217154763424
0.05561432517697005 0.3433115956926493 0.22769191316368556
0.057680847296511184 0.37377243845393504 0.24868733459654394
0.055384213940943575 0.3766575924485674 0.2513800325890817
0.049169772069921694 0.3564092027888226 0.23855796597295248
0.04652474368156913 0.3556614442728856 0.23882818711005252
0.0451335314724265 0.3669337402228136 0.24676412392266542
0.04317292439989508 0.37459676170552786 0.2521633109565474
0.041582788158111034 0.38673922759049423 0.26044326560970593
0.03939165374878525 0.39463943098923926 0.26571291077860554
0.03670152058297474 0.39815869615001653 0.2678712833498939
0.03384853482736499 0.3997806043853755 0.2685985435327368
0.03088677454188154 0.3992781502472443 0.2677618960666846
0.02829323501465472 0.40240073839873797 0.26923765572808467
0.025989980155680006 0.40701843643756414 0.27140065104721106
0.023214163586621615 0.4035639750790068 0.26824732603369766
0.021424147538488685 0.4150966308279865 0.2750034913048871
0.019866546427399587 0.43075721103875314 0.28441907633071045
0.018321257721950746 0.4464880158626329 0.2938133566680081
0.017175745111917523 0.47264819223880034 0.3099961689040831
0.016005629616424096 0.49984268790750086 0.3267741355555977
0.014535530209836814 0.5178416458230287 0.3374905476455683
0.013108629137620627 0.5355630986936708 0.34801023991648367
0.011572962728649128 0.5450036207286976 0.3531618000260516
0.01010464550161538 0.5511450773637465 0.3562190538042245
0.010458818310825136 0.6709799533780914 0.43277757193889627
0.010082645924318654 0.7535985539202706 0.4849795525254143
0.010541066031994988 0.920962741509262 0.5914976553940666
0.009657062171784287 0.9895692667599321 0.6344288359286953
0.008576324041850592 1.0345508374643895 0.6622311463665504
0.007584338776969522 1.081585871474009 0.6914023718708371
0.006557150497534873 1.110457304617523 0.709038338631971
0.005781239743212032 1.1668345139138276 0.7443132312203643
0.0641561067887907 0.06517518677045916 0.03899606316081671
0.03350342401684497 0.04978974536504059 0.029851963802039628
0.026561345241630743 0.05062996973656896 0.030472661330614114
0.048391713570367506 0.1095473289099122 0.06659561414744311
0.05052619002375639 0.13058665496661073 0.0800323966262469
0.051159565803222604 0.14702690201161286 0.09083220866642895
0.061106037098482655 0.1916183852589983 0.11927887805068511
0.06653259210553639 0.22426087828435368 0.1406618741157201
0.0724703788474103 0.25729433059054413 0.16253820937750496
0.0752192128117665 0.28377848337587397 0.18065376919605916
0.07566688387745951 0.3025011018461034 0.19390449916227867
0.07863343273858125 0.3328664220117317 0.2146732288435434
0.0795431277273598 0.3564657380335314 0.23111259076209204
0.07738378217477757 0.3669677228359709 0.23902060665357677
0.07127153822976605 0.35734599439074766 0.23371113225750442
0.06633548939014919 0.35120946870249675 0.2305633774692646
0.06188739402660774 0.34544411238586265 0.22758184159473369
0.057494296016373375 0.33775577926394135 0.22327217154763424
0.05561432517697005 0.3433115956926493 0.22769191316368556
0.057680847296511184 0.37377243845393504 0.24868733459654394
0.055384213940943575 0.3766575924485674 0.2513800325890817
0.049169772069921694 0.3564092027888226 0.23855796597295248
0.04652474368156913 0.3556614442728856 0.23882818711005252
0.0451335314724265 0.3669337402228136 0.24676412392266542
0.04317292439989508 0.37459676170552786 0.2521633109565474
0.041582788158111034 0.38673922759049423 0.26044326560970593
0.03939165374878525 0.39463943098923926 0.26571291077860554