# vtk DataFile Version 4.0
[MyVLM domain - lattices] 
ASCII
DATASET UNSTRUCTURED_GRID
POINTS 152 float
0.0018916144324157278 -0.007529301875155122 0.006766065024163834
0.0010688609733395774 -0.011778568125731487 0.007042388542775164
0.00045780959861706216 -0.01595289362067508 0.00733125735771381
-0.00013255382275044122 -0.020028480828805793 0.007497708963046231
-0.0007201482309470062 -0.024015321367174557 0.007598408634902002
-0.0011946371146526612 -0.0278874404864066 0.00748604624938279
-0.0014108622120167862 -0.03159208007084667 0.006861415664335732
-0.0013224843579428829 -0.035173222572394545 0.005973953759602179
-0.0010167791708201568 -0.03869506635642082 0.005187747557557589
-0.0006138083932142036 -0.0421146718572366 0.0042592746799683095
-0.00020084691410191335 -0.045451866398941596 0.0033009814695326408
0.0001698744379422134 -0.04873155918441856 0.002454135035700684
0.0004739400232210948 -0.051940958390852034 0.0016461893462994437
0.0007082255455298663 -0.05506585871238839 0.0007965821084990706
0.0008836440760600275 -0.05810830161815519 -8.310893095191434e-5
0.001017516815515788 -0.061078574179362 -0.000934542892125717
0.0011275777072549662 -0.0639860983633869 -0.0017042851427259691
0.0012277625198140337 -0.06683322864922613 -0.0023789827688264686
0.00132638558954348 -0.0696140913371792 -0.002991947176752644
0.0014271324949937316 -0.0723200345147313 -0.003592245800654711
0.0015306083418583354 -0.07494534681234685 -0.004212269426744816
0.0016355657532635378 -0.0774898985908182 -0.004852753275504483
0.0017398364473795213 -0.07995718691211796 -0.005493864522946275
0.0018410131526058282 -0.08235125689755105 -0.0061126621461555595
0.001936923789896676 -0.08467508153135454 -0.006692285513678464
0.0020259353317291845 -0.08693032137684509 -0.007223317102967084
0.0021071205190511294 -0.08911741559320938 -0.007703266318509962
0.002180316672546981 -0.09123573015369546 -0.008135728904698623
0.0022461021518325993 -0.0932837421054525 -0.008529341956348116
0.0023056987632523672 -0.0952592683581578 -0.008896486393916167
0.0023607022647827588 -0.0971599243665465 -0.009250685645611443
0.0024126938092907785 -0.09898374001230056 -0.009603112807633455
0.0024629658139780817 -0.10072955140173634 -0.009960368649070305
0.0025123806343549317 -0.1023971494397936 -0.010323639006935588
0.0025613283706516186 -0.10398725212235553 -0.010688851924230502
0.0026097549007438213 -0.10550135750399983 -0.011047511511263767
0.0026572361369983943 -0.10694152257524349 -0.011387951995113157
0.002703078927872171 -0.10830995817024507 -0.011697635112209009
0.0027464329900004744 -0.10960805414049689 -0.011968678623051211
0.0027864017842759935 -0.11083557137245416 -0.012202438607938869
0.0028221433614242725 -0.11199056220003988 -0.012409960830085281
0.0028529549202113143 -0.11306978419267781 -0.012609634027068833
0.002878337166053322 -0.11406925355661916 -0.012824051415950166
0.0028980365508205295 -0.11498406844431054 -0.013081012755641271
0.0029120651374179955 -0.11580818328336816 -0.013414804190891576
0.002920699186668212 -0.11653543930664513 -0.013860353825852503
0.0029244586304951574 -0.11716120547317227 -0.014443925598978528
0.002924070395798875 -0.1176838908579451 -0.015174542094324093
0.0029204190990956736 -0.11810589845216686 -0.01603857527156505
0.0029144889643634465 -0.11843383542166858 -0.016998554031245016
0.002907300946956263 -0.11867797845646155 -0.017996196368137093
0.006212993241944028 -0.004994851275970461 -0.007607518581711368
0.0072288922610571306 -0.008538704383879728 -0.011331791794427353
0.007974780507892725 -0.01226980223957147 -0.013556591831929822
0.008270023946844132 -0.01609040234296534 -0.014836243957928388
0.008140225139500825 -0.019955108643207653 -0.015428201970312055
0.007751519283975376 -0.02379715191913838 -0.015711132939155686
0.007318662739924205 -0.027535092122723134 -0.01614690632826549
0.0069707766105224795 -0.031193799953285892 -0.016594473392724254
0.006702226685381192 -0.034824617365956115 -0.016762659435822634
0.006460614097576536 -0.038375238104249684 -0.016948107979011265
0.006208498480286784 -0.041858138979849226 -0.01708005950702763
0.005928720355726676 -0.04529239985855456 -0.017050306723840534
0.00562110152420414 -0.04866065827811522 -0.01695731704595478
0.005297776270156929 -0.05194511545018322 -0.0169020324181396
0.004977662142563614 -0.05514498553271503 -0.016888909572089484
0.004680078492205027 -0.058268316956309886 -0.016872303589670578
0.0044193472589770496 -0.06132272036157936 -0.01680905238314683
0.0042022226504668725 -0.0643090774094559 -0.01669415580490088
0.004028605706719037 -0.06722036381564173 -0.01656745055076673
0.003894567528214928 -0.07004712306984587 -0.016482567155634526
0.003794542923454683 -0.07278317203825159 -0.016474571913907356
0.0037223892098821663 -0.07542820048353294 -0.016545224268891625
0.0036720478837599236 -0.07798577305504413 -0.016674308089511484
0.0036379885391020494 -0.0804602103005414 -0.016837320331826278
0.003615480687410345 -0.08285493047223821 -0.01701487512420284
0.003600729157216099 -0.08517217350086571 -0.017194269188208388
0.0035909263662617956 -0.08741305920750513 -0.017369151702903828
0.003584242976167935 -0.08957770557826561 -0.017538853535813352
0.00357976601221264 -0.09166538570969676 -0.01770749716125969
0.003577378730160166 -0.09367473179753785 -0.01788283978267965
0.0035774796054096774 -0.09560417165089997 -0.01807379773767847
0.003580588564800478 -0.09745252510896703 -0.018287064050836622
0.0035870678637920984 -0.09921937907019346 -0.01852498153743913
0.0035969747054953923 -0.10090522205278282 -0.018784779673079628
0.0036100119296844893 -0.10251140525518346 -0.01905879543056326
0.0036255480079795204 -0.10403998704541124 -0.019335355224783662
0.0036426825552804717 -0.10549350603492628 -0.019600061874719778
0.0036603380175139954 -0.10687457273532419 -0.019838110433419914
0.003677362157174432 -0.10818489387220676 -0.020039821579007362
0.0036926294639041822 -0.10942446574051563 -0.020205216323911958
0.0037051326977571345 -0.11059149793200072 -0.02034444857789238
0.003714058455611533 -0.1116828321743344 -0.02047542979338177
0.003718842962038476 -0.11269450226310875 -0.02062065343333155
0.003719206248598144 -0.11362156511475287 -0.020808153117730304
0.003715164522496519 -0.11445788377993496 -0.02107273321575117
0.0037070218583473346 -0.11519716732621457 -0.021450071378172335
0.003695343396461056 -0.11583462151051764 -0.021967357108578195
0.003680913018392471 -0.11636847105762207 -0.022634658493061153
0.0036646790161518838 -0.11680092323547896 -0.023439457493018914
0.003647691596346039 -0.11713838753856717 -0.024345404058940333
0.0036310361855396924 -0.11739094989291474 -0.02529529806190888
0.005410766489344848 -0.007488567122554646 -0.005376184695184645
0.005892211109850776 -0.011269622702095021 -0.007536438122322818
0.006132458642509649 -0.015132748524636414 -0.008793692631101822
0.006047255650667177 -0.019022541894312416 -0.009462152523346637
0.005720055990603616 -0.022894942942577406 -0.009791693730514802
0.005325630843128663 -0.026684531585354727 -0.010153331986068126
0.005016871435172548 -0.03036899735890854 -0.010673596217378916
0.004834968294868498 -0.03399044261081767 -0.01111371214606011
0.004732241848104854 -0.03755116307803435 -0.011460660000871975
0.00464908530328423 -0.04103333368855937 -0.011815530788576967
0.004547585503985086 -0.04445438026232144 -0.012079497773421394
0.004411660012619469 -0.04781646149816 -0.01224031836592323
0.004242349868979272 -0.05110301728601696 -0.012391909617185578
0.00405227310746894 -0.054305557909904795 -0.012582419099142515
0.003859297849485217 -0.05742834790807399 -0.012787661413544727
0.0036804214720396232 -0.060479723062052085 -0.012960361994162992
0.003527506244425096 -0.06346434004071484 -0.013074111559461945
0.003405829147614405 -0.06637945545771229 -0.013144468626572746
0.003315379723667389 -0.06921707331354666 -0.013216780762076389
0.003253134023982613 -0.07196953333142132 -0.013334491554503147
0.003214621311891553 -0.07463367037106483 -0.013515551406330779
0.0031948391851961662 -0.07721112576483342 -0.013750651859207512
0.0031888698585714084 -0.0797057992345532 -0.014017676491639394
0.0031922930777549615 -0.08212147009340556 -0.01429519175349017
0.003201436081938149 -0.08446083935343893 -0.014567879444234905
0.0032135028026517493 -0.08672542938689588 -0.014827105761851714
0.003226618152360912 -0.08891568001302713 -0.015070376367420016
0.0032398057236901635 -0.09103109326537939 -0.015300515369033235
0.003252904392775423 -0.09307042037316428 -0.015524604897760287
0.003266372004343082 -0.09503198788375224 -0.01575213557507525
0.0032809500730880004 -0.09691421933230601 -0.015992047977348774
0.0032973286136308236 -0.09871612549393981 -0.01624995227769138
0.0033159342695244357 -0.10043756302630735 -0.016526661410945272
0.0033368336138182735 -0.102079285435756 -0.016817902030261844
0.0033597203855484335 -0.10364284831601744 -0.017114851925191882
0.0033839603409402744 -0.105130419915032 -0.017405214350610907
0.003408672097906746 -0.10654446463203003 -0.017675013003967656
0.0034328265552422406 -0.10788705151666686 -0.017912513721567755
0.0034553512046890385 -0.10915896304388978 -0.018113278867468507
0.003475228953835527 -0.1103592530737554 -0.018282674267929646
0.0034915839677176984 -0.1114854170889654 -0.01843490374637207
0.0035037495424018335 -0.11253388013270332 -0.01859024189039487
0.0035113151685979642 -0.11350019051681433 -0.018773935478097126
0.003514151750190315 -0.11437882480146777 -0.01901730949337216
0.003512415433327221 -0.11516359698855774 -0.019355446474814325
0.0035065316976985676 -0.11584900141125178 -0.01981957061063533
0.0034971622838568268 -0.11643179675444208 -0.020428064312277585
0.003485158199815951 -0.11691224652367688 -0.021179433165516168
0.0034715024876191118 -0.11729470827449674 -0.022048964244835975
0.003457246657122113 -0.11758747827157198 -0.02298960709524122

CELLS 100 350
4 0 51 52 1
4 1 52 53 2
4 2 53 54 3
4 3 54 55 4
4 4 55 56 5
4 5 56 57 6
4 6 57 58 7
4 7 58 59 8
4 8 59 60 9
4 9 60 61 10
4 10 61 62 11
4 11 62 63 12
4 12 63 64 13
4 13 64 65 14
4 14 65 66 15
4 15 66 67 16
4 16 67 68 17
4 17 68 69 18
4 18 69 70 19
4 19 70 71 20
4 20 71 72 21
4 21 72 73 22
4 22 73 74 23
4 23 74 75 24
4 24 75 76 25
4 25 76 77 26
4 26 77 78 27
4 27 78 79 28
4 28 79 80 29
4 29 80 81 30
4 30 81 82 31
4 31 82 83 32
4 32 83 84 33
4 33 84 85 34
4 34 85 86 35
4 35 86 87 36
4 36 87 88 37
4 37 88 89 38
4 38 89 90 39
4 39 90 91 40
4 40 91 92 41
4 41 92 93 42
4 42 93 94 43
4 43 94 95 44
4 44 95 96 45
4 45 96 97 46
4 46 97 98 47
4 47 98 99 48
4 48 99 100 49
4 49 100 101 50
1 102
1 103
1 104
1 105
1 106
1 107
1 108
1 109
1 110
1 111
1 112
1 113
1 114
1 115
1 116
1 117
1 118
1 119
1 120
1 121
1 122
1 123
1 124
1 125
1 126
1 127
1 128
1 129
1 130
1 131
1 132
1 133
1 134
1 135
1 136
1 137
1 138
1 139
1 140
1 141
1 142
1 143
1 144
1 145
1 146
1 147
1 148
1 149
1 150
1 151

CELL_TYPES 100
9
9
9
9
9
9
9
9
9
9
9
9
9
9
9
9
9
9
9
9
9
9
9
9
9
9
9
9
9
9
9
9
9
9
9
9
9
9
9
9
9
9
9
9
9
9
9
9
9
9
1
1
1
1
1
1
1
1
1
1
1
1
1
1
1
1
1
1
1
1
1
1
1
1
1
1
1
1
1
1
1
1
1
1
1
1
1
1
1
1
1
1
1
1
1
1
1
1
1
1

CELL_DATA 100

VECTORS S float
1.6998624243330098e-18 -1.1748898688601998e-19 6.8158596843782e-19
-4.21195202250882e-18 -4.60467770615164e-18 -2.2765490508901598e-18
1.2675739030496699e-18 6.79150482207684e-18 1.81102027896791e-18
-1.9064802123142998e-19 -6.21957990348789e-18 -1.44958091809327e-18
1.7856619051511e-19 1.159963464979416e-17 2.75713076693974e-18
1.3777998016300999e-19 1.704749630440511e-17 4.2012794061100895e-18
-3.704535521513e-20 -9.61452757416972e-18 -2.45709115199907e-18
1.2142241656549999e-20 1.3415471638936679e-17 3.55084273418717e-18
-3.89190374454e-21 2.7083234226691e-18 7.408800373871099e-19
-6.842807405426e-20 2.079307422040752e-17 5.8553934885229896e-18
-2.9614714746459997e-19 5.919986441101402e-17 1.713753894163574e-17
-2.0474424599595999e-19 3.20761552642027e-17 9.50898996058734e-18
-1.7608536343875999e-19 2.333639227522366e-17 7.058559169572089e-18
2.2297229029669998e-20 -2.63120886822305e-18 -8.094350851934799e-19
-5.9032345131851e-19 6.545408941039362e-17 2.0427092169842538e-17
6.429182586108399e-19 -6.82576755209954e-17 -2.1579327483198398e-17
6.2783634046472e-19 -6.502997885706249e-17 -2.0788394294704468e-17
8.0011827120247e-19 -8.215598059684136e-17 -2.6519596428095478e-17
-4.9260938871166e-19 4.998459929551702e-17 1.6272976496682858e-17
4.4457178759831e-19 -4.3495041661797377e-17 -1.426617388957978e-17
4.6105062713538e-19 -4.5289869706492286e-17 -1.495595358512861e-17
4.5542228108639995e-20 -4.5789313268627995e-18 -1.52131601471448e-18
-6.0140310228019e-19 6.190189268297017e-17 2.065728291985906e-17
3.3554710656049e-19 -3.514272837025224e-17 -1.17628012529948e-17
2.6484809782697e-19 -2.853185750713516e-17 -9.5697633894084e-18
-2.2853489319758e-19 2.550084751735005e-17 8.56184473478236e-18
-4.0387451251618e-19 4.7388519975866316e-17 1.590945138762843e-17
2.2383169953762997e-19 -2.799533600073426e-17 -9.38754991310275e-18
-2.9780720314587e-19 4.027673849983772e-17 1.347504316562291e-17
-3.142445520442e-20 4.66183122034472e-18 1.55451481219897e-18
1.1805829470425999e-19 -1.907638795880657e-17 -6.34605813477219e-18
-6.775088952389e-20 1.223806260159913e-17 4.0513339993881996e-18
4.830484706143e-20 -9.776057381486e-18 -3.22356626948382e-18
2.982416817475e-20 -6.63490816117629e-18 -2.17375537820523e-18
-8.075929057831e-20 1.959981861600604e-17 6.37939465668843e-18
1.652717251711e-20 -4.35392183884519e-18 -1.40782910714821e-18
-6.831998054452e-20 1.9144929159360118e-17 6.15024063316459e-18
7.4461012011e-20 -2.204765970148849e-17 -7.03776315762211e-18
-9.179118797467e-20 2.893044416518108e-17 9.1889744739388e-18
1.0821879045073999e-19 -3.550129523396296e-17 -1.120931527222474e-17
-4.905988280643e-20 1.698415430372014e-17 5.33321353539818e-18
5.023821798061e-20 -1.753085162015022e-17 -5.4770872068674396e-18
-1.5600328116583998e-19 4.601574878466133e-17 1.431029516574364e-17
-5.50099976135e-21 1.45459876190203e-18 4.5048508991601e-19
-3.3729823393206996e-19 6.671428510239648e-17 2.058485509985367e-17
4.9723550049887e-19 -7.169917346106971e-17 -2.205115266101736e-17
3.6771710919625996e-19 -4.100955715869482e-17 -1.2577085569420719e-17
-2.1183496554366999e-19 1.7591118580653918e-17 5.3820965219245394e-18
-4.597457289452699e-19 2.7451899075961857e-17 8.382531593113589e-18
-7.289584878271499e-19 2.183446066427488e-17 6.66102777410172e-18
1.6998624243330098e-18 -1.1748898688601998e-19 6.8158596843782e-19
-4.21195202250882e-18 -4.60467770615164e-18 -2.2765490508901598e-18
1.2675739030496699e-18 6.79150482207684e-18 1.81102027896791e-18
-1.9064802123142998e-19 -6.21957990348789e-18 -1.44958091809327e-18
1.7856619051511e-19 1.159963464979416e-17 2.75713076693974e-18
1.3777998016300999e-19 1.704749630440511e-17 4.2012794061100895e-18
-3.704535521513e-20 -9.61452757416972e-18 -2.45709115199907e-18
1.2142241656549999e-20 1.3415471638936679e-17 3.55084273418717e-18
-3.89190374454e-21 2.7083234226691e-18 7.408800373871099e-19
-6.842807405426e-20 2.079307422040752e-17 5.8553934885229896e-18
-2.9614714746459997e-19 5.919986441101402e-17 1.713753894163574e-17
-2.0474424599595999e-19 3.20761552642027e-17 9.50898996058734e-18
-1.7608536343875999e-19 2.333639227522366e-17 7.058559169572089e-18
2.2297229029669998e-20 -2.63120886822305e-18 -8.094350851934799e-19
-5.9032345131851e-19 6.545408941039362e-17 2.0427092169842538e-17
6.429182586108399e-19 -6.82576755209954e-17 -2.1579327483198398e-17
6.2783634046472e-19 -6.502997885706249e-17 -2.0788394294704468e-17
8.0011827120247e-19 -8.215598059684136e-17 -2.6519596428095478e-17
-4.9260938871166e-19 4.998459929551702e-17 1.6272976496682858e-17
4.4457178759831e-19 -4.3495041661797377e-17 -1.426617388957978e-17
4.6105062713538e-19 -4.5289869706492286e-17 -1.495595358512861e-17
4.5542228108639995e-20 -4.5789313268627995e-18 -1.52131601471448e-18
-6.0140310228019e-19 6.190189268297017e-17 2.065728291985906e-17
3.3554710656049e-19 -3.514272837025224e-17 -1.17628012529948e-17
2.6484809782697e-19 -2.853185750713516e-17 -9.5697633894084e-18
-2.2853489319758e-19 2.550084751735005e-17 8.56184473478236e-18
-4.0387451251618e-19 4.7388519975866316e-17 1.590945138762843e-17
2.2383169953762997e-19 -2.799533600073426e-17 -9.38754991310275e-18
-2.9780720314587e-19 4.027673849983772e-17 1.347504316562291e-17
-3.142445520442e-20 4.66183122034472e-18 1.55451481219897e-18
1.1805829470425999e-19 -1.907638795880657e-17 -6.34605813477219e-18
-6.775088952389e-20 1.223806260159913e-17 4.0513339993881996e-18
4.830484706143e-20 -9.776057381486e-18 -3.22356626948382e-18
2.982416817475e-20 -6.63490816117629e-18 -2.17375537820523e-18
-8.075929057831e-20 1.959981861600604e-17 6.37939465668843e-18
1.652717251711e-20 -4.35392183884519e-18 -1.40782910714821e-18
-6.831998054452e-20 1.9144929159360118e-17 6.15024063316459e-18
7.4461012011e-20 -2.204765970148849e-17 -7.03776315762211e-18
-9.179118797467e-20 2.893044416518108e-17 9.1889744739388e-18
1.0821879045073999e-19 -3.550129523396296e-17 -1.120931527222474e-17
-4.905988280643e-20 1.698415430372014e-17 5.33321353539818e-18
5.023821798061e-20 -1.753085162015022e-17 -5.4770872068674396e-18
-1.5600328116583998e-19 4.601574878466133e-17 1.431029516574364e-17
-5.50099976135e-21 1.45459876190203e-18 4.5048508991601e-19
-3.3729823393206996e-19 6.671428510239648e-17 2.058485509985367e-17
4.9723550049887e-19 -7.169917346106971e-17 -2.205115266101736e-17
3.6771710919625996e-19 -4.100955715869482e-17 -1.2577085569420719e-17
-2.1183496554366999e-19 1.7591118580653918e-17 5.3820965219245394e-18
-4.597457289452699e-19 2.7451899075961857e-17 8.382531593113589e-18
-7.289584878271499e-19 2.183446066427488e-17 6.66102777410172e-18

SCALARS Gamma float
LOOKUP_TABLE default
5.0210223385489445e-6
0.0004125329318791311
0.0030323850947843564
0.02563533628335466
0.05621124320705844
0.10188570468519025
0.14931937683662738
0.192883582900754
0.23423551413720994
0.26758035412277664
0.28721461267311443
0.29044487833496035
0.28207060454162125
0.2575644944367589
0.24522008659349523
0.23561560997886827
0.22416763119928818
0.2183202144741808
0.21284295496443364
0.20446051817289126
0.2028230445071558
0.1994197473233979
0.19455717515959736
0.1907714706311948
0.18777530047975083
0.18661488722982633
0.18701400063813217
0.18761342810204173
0.18959377896699603
0.19266503485353978
0.19331004558670986
0.2004602575873083
0.20075282020750496
0.19974013552698355
0.1985192984043759
0.1967795658425417
0.194580986263512
0.19201502662479594
0.19016341871151313
0.18440185166838713
0.1807882799148534
0.17246455563074023
0.1602846896205806
0.15045295779483214
0.1305943981463147
0.0984783391080141
0.07704270172758738
0.05834055694247612
0.04222613314188121
0.021911244147265908
5.0210223385489445e-6
0.0004125329318791311
0.0030323850947843564
0.02563533628335466
0.05621124320705844
0.10188570468519025
0.14931937683662738
0.192883582900754
0.23423551413720994
0.26758035412277664
0.28721461267311443
0.29044487833496035
0.28207060454162125
0.2575644944367589
0.24522008659349523
0.23561560997886827
0.22416763119928818
0.2183202144741808
0.21284295496443364
0.20446051817289126
0.2028230445071558
0.1994197473233979
0.19455717515959736
0.1907714706311948
0.18777530047975083
0.18661488722982633
0.18701400063813217
0.18761342810204173
0.18959377896699603
0.19266503485353978
0.19331004558670986
0.2004602575873083
0.20075282020750496
0.19974013552698355
0.1985192984043759
0.1967795658425417
0.194580986263512
0.19201502662479594
0.19016341871151313
0.18440185166838713
0.1807882799148534
0.17246455563074023
0.1602846896205806
0.15045295779483214
0.1305943981463147
0.0984783391080141
0.07704270172758738
0.05834055694247612
0.04222613314188121
0.021911244147265908

VECTORS Ftot float
0.005261204469505604 0.003360632627436129 -0.012542051711165339
0.01196400175328296 0.012949134040699384 -0.048326826153909826
-0.0007681935782455992 0.02979159663150863 -0.11118375226738814
-0.2644645187971039 0.062271815107431974 -0.23240157786047155
-0.7486906801586388 0.10206322940567905 -0.3809051577265525
-1.6191910684380106 0.1630661441414695 -0.6085711349303148
-2.731392910849937 0.22761899779065695 -0.8494856645226406
-3.967643812641984 0.29457184639019807 -1.0993570972075952
-5.333282317814965 0.3662167206595342 -1.366739408082642
-6.6635308279219405 0.4303447842988548 -1.606068599775597
-7.746224586509544 0.4821094773870746 -1.7992570644190433
-8.42208227539493 0.5054027970399139 -1.886188916840382
-8.735604534219725 0.5116272761261205 -1.909418989040755
-8.473843175584953 0.48491244418088486 -1.8097178789054713
-8.536970402961234 0.4674557972501751 -1.7445687856302714
-8.640722968117203 0.45247743170739163 -1.6886687644102647
-8.632038023283506 0.4317174896418 -1.6111916058592897
-8.798692349697676 0.41863611522023253 -1.562371251885168
-8.947816842842872 0.4101412969836286 -1.5306681586250996
-8.93529027148546 0.40754693610489356 -1.5209858720124911
-9.19841654777221 0.4028815002780484 -1.503574228467253
-9.366189754386571 0.3882389962548614 -1.4489276595026874
-9.44039451584798 0.3737119177584301 -1.3947118644684644
-9.543598198895761 0.36570253719520907 -1.364820449269369
-9.667924901944339 0.35647175628658045 -1.33037070592483
-9.87182390831534 0.34964648905169754 -1.3048984618290118
-10.14901405978586 0.3419660172208346 -1.2762345507301298
-10.429761755279387 0.3316313444880792 -1.2376650270118899
-10.781682677104799 0.3206755797865959 -1.1967775565101844
-11.192648497458263 0.30861085798555477 -1.151751401769515
-11.458559023576816 0.2936083386401011 -1.0957612373307468
-12.108588710874526 0.284679693261684 -1.0624390791357292
-12.341682628406188 0.26443770314081516 -0.9868949435583393
-12.482965348471854 0.25194884117594535 -0.9402858761767307
-12.599146463511818 0.24177753814833117 -0.9023260564984953
-12.670134632317177 0.2326249323423328 -0.8681680666088595
-12.698547048370877 0.22782194095375963 -0.8502430587183886
-12.690060006683717 0.2240392628833715 -0.8361259119710236
-12.717687250552082 0.21766020295952557 -0.8123189362307041
-12.467946036664458 0.21307209829475385 -0.7951958965113322
-12.34846229663517 0.20749406634141637 -0.774378397855234
-11.890849471237736 0.20528945317944616 -0.766150669523726
-11.14634819361342 0.23526815419291833 -0.8780327048509211
-10.54552726542251 0.2559669761236423 -0.9552817599532037
-9.219678135558658 0.30761161385406927 -1.148022171901646
-6.998221716628396 0.3283772749453541 -1.2255206741470774
-5.507730793022272 0.3416034836877926 -1.2748815571653695
-4.193614586061314 0.3560339400543783 -1.328736753501873
-3.05087504666515 0.36601708256336857 -1.3659943485646255
-1.5934022617278025 0.38399605604667386 -1.4330927910722546
0.005261204469505604 0.003360632627436129 -0.012542051711165339
0.01196400175328296 0.012949134040699384 -0.048326826153909826
-0.0007681935782455992 0.02979159663150863 -0.11118375226738814
-0.2644645187971039 0.062271815107431974 -0.23240157786047155
-0.7486906801586388 0.10206322940567905 -0.3809051577265525
-1.6191910684380106 0.1630661441414695 -0.6085711349303148
-2.731392910849937 0.22761899779065695 -0.8494856645226406
-3.967643812641984 0.29457184639019807 -1.0993570972075952
-5.333282317814965 0.3662167206595342 -1.366739408082642
-6.6635308279219405 0.4303447842988548 -1.606068599775597
-7.746224586509544 0.4821094773870746 -1.7992570644190433
-8.42208227539493 0.5054027970399139 -1.886188916840382
-8.735604534219725 0.5116272761261205 -1.909418989040755
-8.473843175584953 0.48491244418088486 -1.8097178789054713
-8.536970402961234 0.4674557972501751 -1.7445687856302714
-8.640722968117203 0.45247743170739163 -1.6886687644102647
-8.632038023283506 0.4317174896418 -1.6111916058592897
-8.798692349697676 0.41863611522023253 -1.562371251885168
-8.947816842842872 0.4101412969836286 -1.5306681586250996
-8.93529027148546 0.40754693610489356 -1.5209858720124911
-9.19841654777221 0.4028815002780484 -1.503574228467253
-9.366189754386571 0.3882389962548614 -1.4489276595026874
-9.44039451584798 0.3737119177584301 -1.3947118644684644
-9.543598198895761 0.36570253719520907 -1.364820449269369
-9.667924901944339 0.35647175628658045 -1.33037070592483
-9.87182390831534 0.34964648905169754 -1.3048984618290118
-10.14901405978586 0.3419660172208346 -1.2762345507301298
-10.429761755279387 0.3316313444880792 -1.2376650270118899
-10.781682677104799 0.3206755797865959 -1.1967775565101844
-11.192648497458263 0.30861085798555477 -1.151751401769515
-11.458559023576816 0.2936083386401011 -1.0957612373307468
-12.108588710874526 0.284679693261684 -1.0624390791357292
-12.341682628406188 0.26443770314081516 -0.9868949435583393
-12.482965348471854 0.25194884117594535 -0.9402858761767307
-12.599146463511818 0.24177753814833117 -0.9023260564984953
-12.670134632317177 0.2326249323423328 -0.8681680666088595
-12.698547048370877 0.22782194095375963 -0.8502430587183886
-12.690060006683717 0.2240392628833715 -0.8361259119710236
-12.717687250552082 0.21766020295952557 -0.8123189362307041
-12.467946036664458 0.21307209829475385 -0.7951958965113322
-12.34846229663517 0.20749406634141637 -0.774378397855234
-11.890849471237736 0.20528945317944616 -0.766150669523726
-11.14634819361342 0.23526815419291833 -0.8780327048509211
-10.54552726542251 0.2559669761236423 -0.9552817599532037
-9.219678135558658 0.30761161385406927 -1.148022171901646
-6.998221716628396 0.3283772749453541 -1.2255206741470774
-5.507730793022272 0.3416034836877926 -1.2748815571653695
-4.193614586061314 0.3560339400543783 -1.328736753501873
-3.05087504666515 0.36601708256336857 -1.3659943485646255
-1.5934022617278025 0.38399605604667386 -1.4330927910722546

VECTORS D float
0.0052699206343845345 0.0026250012854040546 -0.012690594766549814
0.01489126233205774 0.010117674184559246 -0.048015618732319666
0.028194743080788606 0.02271906893361424 -0.1049328872542692
0.04034953244032219 0.036634381221723335 -0.16249042519856727
0.04857193333328545 0.04731340233992162 -0.20219987131835276
0.05650193711933224 0.05886210622898257 -0.24069724396641484
0.05762619122169466 0.06394870543773475 -0.2510982850534853
0.05741453034577773 0.06763833535396085 -0.25574134894934497
0.05812227257845383 0.07260302554201155 -0.2650986103424484
0.060301869782114846 0.08065924921894839 -0.28572416491566954
0.06553274629403993 0.09351941132988678 -0.3219207351437863
0.06791638386613492 0.10352733302758499 -0.34776073307284633
0.07209013176921428 0.11745951599027678 -0.38653601379663416
0.0717152216877335 0.12488207679976104 -0.40397529488926837
0.0675717474258335 0.1256564884581349 -0.40068560788434066
0.06360664235810698 0.12601063916206717 -0.3966898159843806
0.0587924163155465 0.12391943187662763 -0.3858675136565518
0.054369997880493896 0.12156342623644192 -0.37495518023504737
0.052545036850796124 0.12429052936922211 -0.38018417402166593
0.055843678998998794 0.13944165893232352 -0.4233927251415845
0.05354155069727137 0.1409192717726572 -0.425083566621404
0.04828322048531747 0.13385907082483234 -0.4014501664586966
0.04545221339467387 0.13453906847236652 -0.4018383205722579
0.044356483189954894 0.13907660859530352 -0.41424212516457143
0.04263744032050012 0.14210200734652753 -0.4224913005266943
0.04121550659938604 0.14672245902841102 -0.4359023071854672
0.03912892606834343 0.1497038940389618 -0.4449206088082679
0.03645163822423844 0.15097651337700402 -0.4493695615067717
0.03349087720485821 0.1514029579374555 -0.4518014113683258
0.030296347324553306 0.15083015404707217 -0.4517117941792969
0.027274081565674537 0.15188010763434762 -0.45604749648306536
0.024531382652855312 0.15331649802608507 -0.46272039727859776
0.02098124110610689 0.15127166833957031 -0.45844474432802895
0.018872840399946588 0.15624662462057667 -0.4766493730038586
0.016951156545366674 0.1632287414770114 -0.5012834186608094
0.015004396402203543 0.170547631209107 -0.5272678850492388
0.013317105902810173 0.18182679430046253 -0.5658561151206543
0.011509957645356358 0.19285939608431515 -0.6040614321331438
0.009239811705838244 0.20061667284310905 -0.6315265468912953
0.007351141288112234 0.20760155020129648 -0.6574289520936428
0.005469693333533037 0.21126739608969855 -0.6727519324333217
0.0038082652758724502 0.21785268396185117 -0.6972596222928945
0.0026335296861404226 0.2597645751826852 -0.83526233785182
0.0010956501487411688 0.28886037565895856 -0.9327054924353035
-0.0005776414307914415 0.35148739338661156 -1.1391591000265888
-0.002362858387611549 0.37649529290959166 -1.2242251743328392
-0.003999826331245181 0.3915442242170194 -1.2768082048200713
-0.005521719545374247 0.40701394266207114 -1.3305224448217379
-0.006843253165112585 0.41690999873711687 -1.3657112100728994
-0.008227609501720965 0.43496633255913647 -1.426694676349513
0.0052699206343845345 0.0026250012854040546 -0.012690594766549814
0.01489126233205774 0.010117674184559246 -0.048015618732319666
0.028194743080788606 0.02271906893361424 -0.1049328872542692
0.04034953244032219 0.036634381221723335 -0.16249042519856727
0.04857193333328545 0.04731340233992162 -0.20219987131835276
0.05650193711933224 0.05886210622898257 -0.24069724396641484
0.05762619122169466 0.06394870543773475 -0.2510982850534853
0.05741453034577773 0.06763833535396085 -0.25574134894934497
0.05812227257845383 0.07260302554201155 -0.2650986103424484
0.060301869782114846 0.08065924921894839 -0.28572416491566954
0.06553274629403993 0.09351941132988678 -0.3219207351437863
0.06791638386613492 0.10352733302758499 -0.34776073307284633
0.07209013176921428 0.11745951599027678 -0.38653601379663416
0.0717152216877335 0.12488207679976104 -0.40397529488926837
0.0675717474258335 0.1256564884581349 -0.40068560788434066
0.06360664235810698 0.12601063916206717 -0.3966898159843806
0.0587924163155465 0.12391943187662763 -0.3858675136565518
0.054369997880493896 0.12156342623644192 -0.37495518023504737
0.052545036850796124 0.12429052936922211 -0.38018417402166593
0.055843678998998794 0.13944165893232352 -0.4233927251415845
0.05354155069727137 0.1409192717726572 -0.425083566621404