# vtk DataFile Version 4.0
[MyVLM domain - lattices] 
ASCII
DATASET UNSTRUCTURED_GRID
POINTS 152 float
0.0018916144324157278 0.01010835087405826 0.0005396899529873834
0.0010688609733395774 0.01330842608871937 0.0033489847000256717
0.00045780959861706216 0.016464381050990344 0.006096417466463745
-0.00013255382275044122 0.019463955462046687 0.008860593759780181
-0.0007201482309470062 0.022354282863069168 0.011608510319137691
-0.0011946371146526612 0.025012832345089317 0.014425964210659685
-0.0014108622120167862 0.027190727594675727 0.01748722050509268
-0.0013224843579428829 0.02909544741103377 0.02064700098321437
-0.0010167791708201568 0.0310298352961218 0.023693252342055694
-0.0006138083932142036 0.032791332066840304 0.02676780804855653
-0.00020084691410191335 0.03447346932995456 0.029805176566598965
0.0001698744379422134 0.03619375148278771 0.03272308043140455
0.0004739400232210948 0.037891835549385494 0.03556377224961445
0.0007082255455298663 0.03950071071808207 0.03837417349669865
0.0008836440760600275 0.04103000722877786 0.041147541006084115
0.001017516815515788 0.042528252371101014 0.04384989560376431
0.0011275777072549662 0.04403989247292368 0.04645011563591743
0.0012277625198140337 0.04557603433829607 0.04894042403462208
0.00132638558954348 0.04710896991302576 0.05134022218829295
0.0014271324949937316 0.04859788545568022 0.053678088186343634
0.0015306083418583354 0.05001583867355244 0.05597288722522421
0.0016355657532635378 0.05136221801849141 0.05822504751556001
0.0017398364473795213 0.052653520211063794 0.060423017929254516
0.0018410131526058282 0.05390882733684531 0.06255343704614283
0.001936923789896676 0.05514216387998649 0.06460648481670327
0.0020259353317291845 0.05636136323012471 0.066576676242462
0.0021071205190511294 0.05756849703667425 0.0684625607388826
0.002180316672546981 0.0587605743997767 0.07026623255659199
0.0022461021518325993 0.05993041108083032 0.07199272215361538
0.0023056987632523672 0.061067708769051 0.07364924048479464
0.0023607022647827588 0.06216121882852068 0.07524366392979417
0.0024126938092907785 0.06320164760312742 0.0767824999766811
0.0024629658139780817 0.06418350464717167 0.07826959307692236
0.0025123806343549317 0.06510580359472475 0.07970563389137664
0.0025613283706516186 0.06597193145395105 0.08108825081139526
0.0026097549007438213 0.06678895501061399 0.08241249562031577
0.0026572361369983943 0.06756657772379807 0.08367157388294051
0.002703078927872171 0.06831522878052328 0.08485818300390065
0.0027464329900004744 0.06904146453920613 0.08596773217160976
0.0027864017842759935 0.06974415702746234 0.08700101120083423
0.0028221433614242725 0.07041411850332983 0.08796445341775498
0.0028529549202113143 0.07103605342112151 0.08886876887876319
0.002878337166053322 0.07159116899627034 0.08972711643327662
0.0028980365508205295 0.07205634170108897 0.09055568734969198
0.0029120651374179955 0.07240305270489561 0.09137445072823357
0.002920699186668212 0.07260224920237747 0.09220374956218755
0.0029244586304951574 0.07263208514407944 0.09305888062006248
0.002924070395798875 0.07248505564577379 0.09394509887836802
0.0029204190990956736 0.07217249635856297 0.09485446702875171
0.0029144889643634465 0.07172557532273466 0.09576516097445291
0.002907300946956263 0.07119277085660103 0.09664323583154966
0.006212993241944028 -0.0018474347688738322 0.00891122118538781
0.0072288922610571306 -0.0019750110484450657 0.014050562593222377
0.007974780507892725 -0.000909897646716932 0.018262018381554692
0.008270023946844132 0.0008868238987415401 0.021868441318719904
0.008140225139500825 0.003201006406203067 0.025019778875649823
0.007751519283975376 0.005717678853548869 0.027936576136349634
0.007318662739924205 0.008052663400673305 0.030887837320474433
0.0069707766105224795 0.010323282811730021 0.03379141214416024
0.006702226685381192 0.012771732933903553 0.03647771324948535
0.006460614097576536 0.015151269012922694 0.039119513173404175
0.006208498480286784 0.01752074802001142 0.04167559982098948
0.005928720355726676 0.019970175570458416 0.04408295058193493
0.00562110152420414 0.022417647571531835 0.04639891531938159
0.005297776270156929 0.024779201645641416 0.04868228512304418
0.004977662142563614 0.027051130733346144 0.05093565570388788
0.004680078492205027 0.02927140176563979 0.05313244233062817
0.0044193472589770496 0.031475916483036305 0.05524750633392232
0.0042022226504668725 0.033668833952246915 0.05727793550390723
0.004028605706719037 0.03581701845644737 0.05924693171928722
0.003894567528214928 0.03787586071818508 0.06118573073240868
0.003794542923454683 0.039816192987045744 0.06311475602198431
0.0037223892098821663 0.04163655177781934 0.06503503233139026
0.0036720478837599236 0.043353752641609865 0.06693478528498431
0.0036379885391020494 0.04498817693556434 0.0687997437028532
0.003615480687410345 0.046555949610293745 0.07061861677302587
0.003600729157216099 0.04806763711033058 0.07238400579138858
0.0035909263662617956 0.049528521977307234 0.07409221188246942
0.003584242976167935 0.05093916078811272 0.07574284532693511
0.00357976601221264 0.05229612451483913 0.0773383071559755
0.003577378730160166 0.05359296080266516 0.07888311535707568
0.0035774796054096774 0.05482225314196791 0.0803824630261808
0.003580588564800478 0.05597843434996396 0.0818402483466424
0.0035870678637920984 0.057059555699174 0.08325783583213142
0.0035969747054953923 0.05806792168072768 0.08463361186058713
0.0036100119296844893 0.05900990631470446 0.0859631132951012
0.0036255480079795204 0.059895219558275994 0.08723954115046634
0.0036426825552804717 0.06073583682515052 0.08845451015173086
0.0036603380175139954 0.06154407270416426 0.0895993975309617
0.003677362157174432 0.06232797834670019 0.09066856581126921
0.0036926294639041822 0.06308753627485483 0.09166202723081317
0.0037051326977571345 0.06381430058036751 0.09258569567822472
0.003714058455611533 0.06449337271798214 0.09345000322720055
0.003718842962038476 0.065106042877481 0.09426805062789358
0.003719206248598144 0.06562899300815599 0.09505616535518596
0.003715164522496519 0.06603327322606156 0.09583461833604666
0.0037070218583473346 0.06628920726140704 0.09662418911828909
0.003695343396461056 0.06637417919004247 0.09744071354248657
0.003680913018392471 0.0662798144908703 0.09829005551144054
0.0036646790161518838 0.06601652552800949 0.09916492420930431
0.003647691596346039 0.06561454786497586 0.1000441484665821
0.0036310361855396924 0.06512145992749996 0.1008944135109212
0.005410766489344848 0.0014936799388526165 0.009096753248605453
0.005892211109850776 0.0026397601317779645 0.013297893136352578
0.006132458642509649 0.004482389408638858 0.016918548790883465
0.006047255650667177 0.006760216154993709 0.020141720582753382
0.005720055990603616 0.009265396373426788 0.02311294244572447
0.005325630843128663 0.011689323337803946 0.02604830313577807
0.005016871435172548 0.013926751705364934 0.029021496235276386
0.004834968294868498 0.016176291243007037 0.03189345368827585
0.004732241848104854 0.018448771650430105 0.034656592457410096
0.00464908530328423 0.020660106561949654 0.03736979044979206
0.004547585503985086 0.022892498948018973 0.039975488525847085
0.004411660012619469 0.025156132057267997 0.04246655629812107
0.004242349868979272 0.027372886739873415 0.04489769338419879
0.00405227310746894 0.02950271438547783 0.04729694212294737
0.003859297849485217 0.031565732137104584 0.04965021633917456
0.0036804214720396232 0.03360126244875662 0.051929982154166644
0.003527506244425096 0.035631272264633675 0.05412085814800351
0.003405829147614405 0.03764282018467559 0.0562319059865623
0.003315379723667389 0.03959818661157542 0.058289537216215534
0.003253134023982613 0.041461235655615644 0.06031905445934336
0.003214621311891553 0.04321703637332989 0.0623309124751135
0.0031948391851961662 0.04487333143598036 0.06431968978674228
0.0031888698585714084 0.04644851703492897 0.06627250524236374
0.0031922930777549615 0.04796042135680076 0.06817687541131041
0.003201436081938149 0.049421785908998025 0.07002387859405108
0.0032135028026517493 0.05083979219121405 0.07180848625036483
0.003226618152360912 0.052216514966588856 0.07352924561546102
0.0032398057236901635 0.05354960517368282 0.07518780151986741
0.003252904392775423 0.05483317197529928 0.07678827877219545
0.003266372004343082 0.05605932117893387 0.07833620494554479
0.0032809500730880004 0.05722061611343047 0.07983678725311812
0.0032973286136308236 0.05831239029971413 0.08129329319874062
0.0033159342695244357 0.059333967547700185 0.08270619625580683
0.0033368336138182735 0.06028890237937153 0.08407300752122962
0.0033597203855484335 0.061184533010438316 0.0853885887210517
0.0033839603409402744 0.06203108773558645 0.08664577792623099
0.003408672097906746 0.06284019188653321 0.08783643499186486
0.0034328265552422406 0.06362160580904035 0.0889537256502754
0.0034553512046890385 0.0643790206789167 0.08999506531233639
0.003475228953835527 0.0651079732620574 0.09096357916821286
0.0034915839677176984 0.06579664897743755 0.09186753987659926
0.0035037495424018335 0.06642818365047266 0.09271875585966528
0.0035113151685979642 0.06698157729428379 0.09353193146652591
0.003514151750190315 0.06743077413857966 0.09432531114395293
0.003512415433327221 0.06774659292120987 0.09511932783167855
0.0035065316976985676 0.06790306171260069 0.09593216727057213
0.0034971622838568268 0.06788489022907394 0.09677453583252649
0.003485158199815951 0.06769332150762203 0.09764556313366929
0.0034715024876191118 0.06734891148253172 0.09853085575385799
0.003457246657122113 0.0668907961945954 0.09940301034231407

CELLS 100 350
4 0 51 52 1
4 1 52 53 2
4 2 53 54 3
4 3 54 55 4
4 4 55 56 5
4 5 56 57 6
4 6 57 58 7
4 7 58 59 8
4 8 59 60 9
4 9 60 61 10
4 10 61 62 11
4 11 62 63 12
4 12 63 64 13
4 13 64 65 14
4 14 65 66 15
4 15 66 67 16
4 16 67 68 17
4 17 68 69 18
4 18 69 70 19
4 19 70 71 20
4 20 71 72 21
4 21 72 73 22
4 22 73 74 23
4 23 74 75 24
4 24 75 76 25
4 25 76 77 26
4 26 77 78 27
4 27 78 79 28
4 28 79 80 29
4 29 80 81 30
4 30 81 82 31
4 31 82 83 32
4 32 83 84 33
4 33 84 85 34
4 34 85 86 35
4 35 86 87 36
4 36 87 88 37
4 37 88 89 38
4 38 89 90 39
4 39 90 91 40
4 40 91 92 41
4 41 92 93 42
4 42 93 94 43
4 43 94 95 44
4 44 95 96 45
4 45 96 97 46
4 46 97 98 47
4 47 98 99 48
4 48 99 100 49
4 49 100 101 50
1 102
1 103
1 104
1 105
1 106
1 107
1 108
1 109
1 110
1 111
1 112
1 113
1 114
1 115
1 116
1 117
1 118
1 119
1 120
1 121
1 122
1 123
1 124
1 125
1 126
1 127
1 128
1 129
1 130
1 131
1 132
1 133
1 134
1 135
1 136
1 137
1 138
1 139
1 140
1 141
1 142
1 143
1 144
1 145
1 146
1 147
1 148
1 149
1 150
1 151

CELL_TYPES 100
9
9
9
9
9
9
9
9
9
9
9
9
9
9
9
9
9
9
9
9
9
9
9
9
9
9
9
9
9
9
9
9
9
9
9
9
9
9
9
9
9
9
9
9
9
9
9
9
9
9
1
1
1
1
1
1
1
1
1
1
1
1
1
1
1
1
1
1
1
1
1
1
1
1
1
1
1
1
1
1
1
1
1
1
1
1
1
1
1
1
1
1
1
1
1
1
1
1
1
1

CELL_DATA 100

VECTORS S float
4.153294248e-23 2.81684136871e-21 4.33753419513e-21
-3.02324110284272e-18 -3.3431196129002197e-18 -3.28530266605631e-18
1.28440795493105e-18 -3.82255497174841e-18 -6.75899188309225e-18
7.358069434734e-20 -1.4925611456467099e-18 -2.43948618181294e-18
1.1134964716e-20 -5.3947603122883e-19 -8.9057342280723e-19
7.654449488378e-20 -7.431734700656889e-18 -1.248049897127797e-17
-6.708411013123999e-20 1.8441522802408288e-17 3.152773265520373e-17
5.3817375408919996e-20 4.2447893774683737e-17 7.388984773509139e-17
1.8132438385204999e-19 3.38043541212339e-17 5.989109965817196e-17
3.7037079638864997e-19 4.166031848839558e-17 7.504425574246192e-17
-6.0448509217443e-19 -5.0422670881818655e-17 -9.223491074452807e-17
1.26053983399493e-18 8.631444465418039e-17 1.6010063721517426e-16
-4.1339430415801e-19 -2.4557637152297568e-17 -4.6110685735892235e-17
-5.428263582503e-19 -2.9360588324415e-17 -5.569420122328372e-17
1.26974705303874e-18 6.419656570401072e-17 1.230018299823426e-16
7.6121298207511e-19 3.690489140585111e-17 7.131906433107013e-17
1.31137835837352e-18 6.181914085843415e-17 1.2035025181016153e-16
1.46966142010398e-18 6.859187947908756e-17 1.3439564381339207e-16
-1.29969755256894e-18 -5.983613665230965e-17 -1.178946018065378e-16
3.3252494750642e-19 1.485397862886945e-17 2.940765100976218e-17
-1.0146974736636699e-18 -4.55151696949523e-17 -9.049807123437241e-17
-9.6141061002713e-19 -4.436591909140916e-17 -8.859589484305771e-17
3.7901553817617e-19 1.773266566901656e-17 3.5529042296120416e-17
3.1778915776162996e-19 1.510132464064276e-17 3.033525336603922e-17
-8.274567880140099e-19 -4.039446832367438e-17 -8.129113953455092e-17
1.1381643415529799e-18 5.75067311682771e-17 1.1584230295244314e-16
-8.923938010850999e-20 -4.786634717124159e-18 -9.638446626231019e-18
1.8278095357656999e-19 1.0497787112626249e-17 2.1116463546079037e-17
-5.0464970952235e-19 -3.152190873734012e-17 -6.328704436980386e-17
-2.2140055409329e-19 -1.527290350033381e-17 -3.0581639936404446e-17
-2.3596917126724e-19 -1.802403700051616e-17 -3.598706530322222e-17
2.79931144865e-19 2.41514106676766e-17 4.80343871712223e-17
1.8442171343634e-19 1.798991874649179e-17 3.5626437953250386e-17
2.1576631318029e-19 2.3305915076158387e-17 4.594960901702524e-17
3.1373258775456e-19 3.737062417274562e-17 7.330876856714697e-17
7.409527750071e-20 9.675186624116619e-18 1.888500179922706e-17
1.830017040419e-20 2.5645983671359497e-18 4.98151864082591e-18
-1.0869538764976999e-19 -1.62371281416874e-17 -3.139185640386342e-17
-1.1396260380327e-19 -1.8311918411040498e-17 -3.524596599568044e-17
-1.360350082645e-19 -2.3009223433291108e-17 -4.410243135090361e-17
-1.0538502246086999e-19 -1.909000750337268e-17 -3.64486590365853e-17
-5.592510284563999e-20 -1.041006648398846e-17 -1.980522536179351e-17
1.9261598463152998e-19 3.2900627005622596e-17 6.241085479892077e-17
-1.2231926789793e-19 -1.656521560001148e-17 -3.133269060084872e-17
4.1378621091725996e-19 3.653901946578082e-17 6.893594512983484e-17
-3.69465391669e-21 -2.4623504815880997e-19 -4.635134462004499e-19
-1.57233800312076e-18 -8.314856003043081e-17 -1.5621300285136484e-16
9.1292124588058e-19 3.64569991864971e-17 6.837793470237754e-17
1.15903657418254e-18 3.352040147862326e-17 6.27822153341218e-17
-2.1084581977367998e-18 -3.095278262134536e-17 -5.791763129208365e-17
4.153294248e-23 2.81684136871e-21 4.33753419513e-21
-3.02324110284272e-18 -3.3431196129002197e-18 -3.28530266605631e-18
1.28440795493105e-18 -3.82255497174841e-18 -6.75899188309225e-18
7.358069434734e-20 -1.4925611456467099e-18 -2.43948618181294e-18
1.1134964716e-20 -5.3947603122883e-19 -8.9057342280723e-19
7.654449488378e-20 -7.431734700656889e-18 -1.248049897127797e-17
-6.708411013123999e-20 1.8441522802408288e-17 3.152773265520373e-17
5.3817375408919996e-20 4.2447893774683737e-17 7.388984773509139e-17
1.8132438385204999e-19 3.38043541212339e-17 5.989109965817196e-17
3.7037079638864997e-19 4.166031848839558e-17 7.504425574246192e-17
-6.0448509217443e-19 -5.0422670881818655e-17 -9.223491074452807e-17
1.26053983399493e-18 8.631444465418039e-17 1.6010063721517426e-16
-4.1339430415801e-19 -2.4557637152297568e-17 -4.6110685735892235e-17
-5.428263582503e-19 -2.9360588324415e-17 -5.569420122328372e-17
1.26974705303874e-18 6.419656570401072e-17 1.230018299823426e-16
7.6121298207511e-19 3.690489140585111e-17 7.131906433107013e-17
1.31137835837352e-18 6.181914085843415e-17 1.2035025181016153e-16
1.46966142010398e-18 6.859187947908756e-17 1.3439564381339207e-16
-1.29969755256894e-18 -5.983613665230965e-17 -1.178946018065378e-16
3.3252494750642e-19 1.485397862886945e-17 2.940765100976218e-17
-1.0146974736636699e-18 -4.55151696949523e-17 -9.049807123437241e-17
-9.6141061002713e-19 -4.436591909140916e-17 -8.859589484305771e-17
3.7901553817617e-19 1.773266566901656e-17 3.5529042296120416e-17
3.1778915776162996e-19 1.510132464064276e-17 3.033525336603922e-17
-8.274567880140099e-19 -4.039446832367438e-17 -8.129113953455092e-17
1.1381643415529799e-18 5.75067311682771e-17 1.1584230295244314e-16
-8.923938010850999e-20 -4.786634717124159e-18 -9.638446626231019e-18
1.8278095357656999e-19 1.0497787112626249e-17 2.1116463546079037e-17
-5.0464970952235e-19 -3.152190873734012e-17 -6.328704436980386e-17
-2.2140055409329e-19 -1.527290350033381e-17 -3.0581639936404446e-17
-2.3596917126724e-19 -1.802403700051616e-17 -3.598706530322222e-17
2.79931144865e-19 2.41514106676766e-17 4.80343871712223e-17
1.8442171343634e-19 1.798991874649179e-17 3.5626437953250386e-17
2.1576631318029e-19 2.3305915076158387e-17 4.594960901702524e-17
3.1373258775456e-19 3.737062417274562e-17 7.330876856714697e-17
7.409527750071e-20 9.675186624116619e-18 1.888500179922706e-17
1.830017040419e-20 2.5645983671359497e-18 4.98151864082591e-18
-1.0869538764976999e-19 -1.62371281416874e-17 -3.139185640386342e-17
-1.1396260380327e-19 -1.8311918411040498e-17 -3.524596599568044e-17
-1.360350082645e-19 -2.3009223433291108e-17 -4.410243135090361e-17
-1.0538502246086999e-19 -1.909000750337268e-17 -3.64486590365853e-17
-5.592510284563999e-20 -1.041006648398846e-17 -1.980522536179351e-17
1.9261598463152998e-19 3.2900627005622596e-17 6.241085479892077e-17
-1.2231926789793e-19 -1.656521560001148e-17 -3.133269060084872e-17
4.1378621091725996e-19 3.653901946578082e-17 6.893594512983484e-17
-3.69465391669e-21 -2.4623504815880997e-19 -4.635134462004499e-19
-1.57233800312076e-18 -8.314856003043081e-17 -1.5621300285136484e-16
9.1292124588058e-19 3.64569991864971e-17 6.837793470237754e-17
1.15903657418254e-18 3.352040147862326e-17 6.27822153341218e-17
-2.1084581977367998e-18 -3.095278262134536e-17 -5.791763129208365e-17

SCALARS Gamma float
LOOKUP_TABLE default
0.00025743616049179357
-0.0004342479900179169
0.002279167216655367
0.021355037116469223
0.05649304865284948
0.09713300962023594
0.14397908260662454
0.18645267903481905
0.22891882529306454
0.25966037706988127
0.2775928518721188
0.2814396779926423
0.2751350232255362
0.25213739285498893
0.23865994103905325
0.2289000880773312
0.21641902164917007
0.21077142596042986
0.20461053733310133
0.1970784123788658
0.19538669200055162
0.19369360630802532
0.18752313387633665
0.18466297261004333
0.18255150614248855
0.18198759797988784
0.1839224198075633
0.18508004210461976
0.18774698814716959
0.1915357770585475
0.19327878554844422
0.20120672365276507
0.2009643660428465
0.20063106996944177
0.1999748856310605
0.19875125706352606
0.19706534753107005
0.19507305547144044
0.1931146980044379
0.1885304918202
0.186742491435765
0.18167830857612943
0.18347096868410448
0.15193007860661828
0.11550437250131254
0.09030127207184144
0.07240910131700354
0.0555233033136217
0.04041953205670282
0.021093681575919322
0.00025743616049179357
-0.0004342479900179169
0.002279167216655367
0.021355037116469223
0.05649304865284948
0.09713300962023594
0.14397908260662454
0.18645267903481905
0.22891882529306454
0.25966037706988127
0.2775928518721188
0.2814396779926423
0.2751350232255362
0.25213739285498893
0.23865994103905325
0.2289000880773312
0.21641902164917007
0.21077142596042986
0.20461053733310133
0.1970784123788658
0.19538669200055162
0.19369360630802532
0.18752313387633665
0.18466297261004333
0.18255150614248855
0.18198759797988784
0.1839224198075633
0.18508004210461976
0.18774698814716959
0.1915357770585475
0.19327878554844422
0.20120672365276507
0.2009643660428465
0.20063106996944177
0.1999748856310605
0.19875125706352606
0.19706534753107005
0.19507305547144044
0.1931146980044379
0.1885304918202
0.186742491435765
0.18167830857612943
0.18347096868410448
0.15193007860661828
0.11550437250131254
0.09030127207184144
0.07240910131700354
0.0555233033136217
0.04041953205670282
0.021093681575919322

VECTORS Ftot float
-0.0016114468463177946 0.0002141255893149688 -0.00012362546663138377
0.020633629234894372 -0.04312958068848695 0.02490087502053348
0.005338494553621848 -0.0859778697068676 0.04963934621961029
-0.21428769049908242 -0.18743281221156075 0.10821438458531256
-0.755037128791387 -0.3322624491517002 0.19183181445933734
-1.5435470788757553 -0.5225212641473423 0.3016777925127699
-2.632645972419001 -0.7390170252009582 0.4266716784354872
-3.828869115199376 -0.9700135206107564 0.5600375672421934
-5.200976241260003 -1.2187619075484428 0.7036525154011511
-6.449025167468745 -1.4332592999176141 0.8274926426259644
-7.466841514363365 -1.5953721273187773 0.9210885271651166
-8.13923925818929 -1.6765254927159055 0.9679424445227924
-8.499702122215833 -1.7020747179900528 0.9826932966124075
-8.275889897794547 -1.607591119403603 0.9281431655345166
-8.290787342082789 -1.5439009500572918 0.8913716291176912
-8.381171120101337 -1.4936954064149202 0.8623854449809566
-8.320475476856194 -1.4235010711714808 0.8218587266325702
-8.481775127352735 -1.3848095410442003 0.7995201612982265
-8.58947742920271 -1.3564103221747659 0.7831238646391836
-8.602293101292622 -1.3464004643813832 0.7773446705476242
-8.851369429208845 -1.333765089105571 0.7700496332308221
-9.086860956456555 -1.287586707342876 0.743388532089389
-9.089663321828123 -1.239236851570246 0.7154737298437818
-9.229432956601096 -1.2156350151018875 0.7018472032054055
-9.391139216116478 -1.188372877598715 0.6861074007792642
-9.619815480406007 -1.1679042031207134 0.6742898060594353
-9.975981894231685 -1.1440968967310055 0.6605446513066576
-10.284263825069115 -1.1097873318050895 0.6407360147609013
-10.672650099175668 -1.073564876775533 0.6198229705988778
-11.123698747325742 -1.0333045365699067 0.5965786523434936
-11.452234774829405 -0.981573353132499 0.5667116396604086
-12.148790816362638 -0.9496180140838595 0.5482622160586309
-12.349847920657163 -0.8831202200404262 0.5098696967671386
-12.533763276711676 -0.8390557186500603 0.48442904502770445
-12.686725111995747 -0.8034049049634742 0.46384603814892483
-12.79229128850882 -0.7718168296367242 0.4456086543558436
-12.85587494734336 -0.7553056913549259 0.43607594422422036
-12.88734525342087 -0.7423520378343873 0.4285971488771483
-12.909188283308536 -0.7220973513289327 0.41690310017087256
-12.74159945410262 -0.7065113865892404 0.40790453923283126
-12.749853842426747 -0.6877657386532082 0.3970817343508293
-12.52108532113005 -0.6835068341952893 0.3946228547155969
-12.754592264512114 -0.7843248882078481 0.4528301853389215
-10.645865512431211 -0.8540538450434277 0.49308821733825514
-8.152985049260096 -1.0344740944030917 0.5972538968733159
-6.416986153451793 -1.109194188111069 0.6403935630894904
-5.1771291289890735 -1.1561040215708382 0.6674769680651285
-3.99249018339691 -1.2064896388954909 0.696567117790802
-2.922352121759144 -1.2420986844193955 0.7171260098096138
-1.5366784232454656 -1.3033192594738698 0.752471725297258
-0.0016114468463177946 0.0002141255893149688 -0.00012362546663138377
0.020633629234894372 -0.04312958068848695 0.02490087502053348
0.005338494553621848 -0.0859778697068676 0.04963934621961029
-0.21428769049908242 -0.18743281221156075 0.10821438458531256
-0.755037128791387 -0.3322624491517002 0.19183181445933734
-1.5435470788757553 -0.5225212641473423 0.3016777925127699
-2.632645972419001 -0.7390170252009582 0.4266716784354872
-3.828869115199376 -0.9700135206107564 0.5600375672421934
-5.200976241260003 -1.2187619075484428 0.7036525154011511
-6.449025167468745 -1.4332592999176141 0.8274926426259644
-7.466841514363365 -1.5953721273187773 0.9210885271651166
-8.13923925818929 -1.6765254927159055 0.9679424445227924
-8.499702122215833 -1.7020747179900528 0.9826932966124075
-8.275889897794547 -1.607591119403603 0.9281431655345166
-8.290787342082789 -1.5439009500572918 0.8913716291176912
-8.381171120101337 -1.4936954064149202 0.8623854449809566
-8.320475476856194 -1.4235010711714808 0.8218587266325702
-8.481775127352735 -1.3848095410442003 0.7995201612982265
-8.58947742920271 -1.3564103221747659 0.7831238646391836
-8.602293101292622 -1.3464004643813832 0.7773446705476242
-8.851369429208845 -1.333765089105571 0.7700496332308221
-9.086860956456555 -1.287586707342876 0.743388532089389
-9.089663321828123 -1.239236851570246 0.7154737298437818
-9.229432956601096 -1.2156350151018875 0.7018472032054055
-9.391139216116478 -1.188372877598715 0.6861074007792642
-9.619815480406007 -1.1679042031207134 0.6742898060594353
-9.975981894231685 -1.1440968967310055 0.6605446513066576
-10.284263825069115 -1.1097873318050895 0.6407360147609013
-10.672650099175668 -1.073564876775533 0.6198229705988778
-11.123698747325742 -1.0333045365699067 0.5965786523434936
-11.452234774829405 -0.981573353132499 0.5667116396604086
-12.148790816362638 -0.9496180140838595 0.5482622160586309
-12.349847920657163 -0.8831202200404262 0.5098696967671386
-12.533763276711676 -0.8390557186500603 0.48442904502770445
-12.686725111995747 -0.8034049049634742 0.46384603814892483
-12.79229128850882 -0.7718168296367242 0.4456086543558436
-12.85587494734336 -0.7553056913549259 0.43607594422422036
-12.88734525342087 -0.7423520378343873 0.4285971488771483
-12.909188283308536 -0.7220973513289327 0.41690310017087256
-12.74159945410262 -0.7065113865892404 0.40790453923283126
-12.749853842426747 -0.6877657386532082 0.3970817343508293
-12.52108532113005 -0.6835068341952893 0.3946228547155969
-12.754592264512114 -0.7843248882078481 0.4528301853389215
-10.645865512431211 -0.8540538450434277 0.49308821733825514
-8.152985049260096 -1.0344740944030917 0.5972538968733159
-6.416986153451793 -1.109194188111069 0.6403935630894904
-5.1771291289890735 -1.1561040215708382 0.6674769680651285
-3.99249018339691 -1.2064896388954909 0.696567117790802
-2.922352121759144 -1.2420986844193955 0.7171260098096138
-1.5366784232454656 -1.3033192594738698 0.752471725297258

VECTORS D float
-0.00038748044771459196 0.000692023456455009 -0.0004456972579681128
0.01747958408210739 -0.042782536999143625 0.027450177545467715
0.027098364519972253 -0.07852038119494628 0.04955677329829166
0.03956555448084699 -0.1264194696131083 0.0785411496884715
0.04581754043797421 -0.15586494199793413 0.09499000851187547
0.05281749017818083 -0.18884163468004087 0.11277304062331317
0.05378152449191369 -0.20094558766760484 0.11765357703625645
0.05653585464757893 -0.21981229227110907 0.12623555883916596
0.05897450742572834 -0.23838498107392705 0.13437316808536223
0.06271646716286758 -0.2640650003974071 0.14628439660962583
0.06754543559039085 -0.2972803659374935 0.16207355459842393
0.0704540313966885 -0.3254448010051332 0.1749010974495564
0.07394054063258794 -0.359646671553248 0.1908777916490905
0.0725441763820002 -0.37445800379980887 0.19669782782863307
0.06815497721792681 -0.3708202511000537 0.19283328578164166
0.06406487354681908 -0.3671654857039874 0.1893103266437765
0.05970806460162406 -0.3600181543746199 0.18427641653896942
0.055642092782587596 -0.3524404145819777 0.17926753218968172
0.05411931618915658 -0.3595574835571125 0.18189290814922646
0.056589517382552454 -0.39387253101765857 0.1983074652920105
0.054571678466310974 -0.39762923723882426 0.19937207741807958
0.048912715240835035 -0.3756874901189709 0.18760119321913982
0.04632517388782301 -0.3756459214081948 0.18699196894126363
0.04516524678910643 -0.3874332893939321 0.19239670701173714
0.04342012022187576 -0.3954669427290674 0.196069937131848
0.04196518513727856 -0.40795957781446857 0.2021080200831485
0.03967858628326586 -0.4179093401577302 0.20717430320478664
0.03690460810477996 -0.42283880011306335 0.20988960757623973
0.03382477940765304 -0.4255007927213762 0.21166302873069182
0.030501153387421393 -0.42556053258690296 0.21231013081678904
0.027242658560834465 -0.42953563027056696 0.2149532783597217
0.024316768730680456 -0.4356725944103975 0.21891193668953898
0.020891491763446058 -0.4307763832548753 0.21741660780456631
0.018612784591929186 -0.44797477221292686 0.2271280693961845
0.016545779935969347 -0.4716751911033328 0.2403751378231709
0.014463342970341709 -0.49695440337770747 0.2545435251767684
0.0126244159863027 -0.5340828250426604 0.2749115301571781
0.01065743049610296 -0.5704695802191466 0.2950328627355068
0.008459953931980164 -0.5944080958186473 0.3087952940897895
0.006369699142033575 -0.6196253340751787 0.3232527282035191
0.004321159968833152 -0.6347900084792795 0.33245916200187114
0.002504397926170981 -0.6608862219952768 0.347369410089267
0.000759814461967773 -0.7909760148888924 0.4169701018786961
-0.0010663407900715592 -0.8812910328451972 0.46593210220723336
-0.003265950693609358 -1.0740625263974666 0.5693189944802798
-0.005275219496514558 -1.153243041338449 0.6126863163541385
-0.007032888262516428 -1.2012752869243821 0.6394817752811608
-0.008654467685802854 -1.2500494985731692 0.6666032631488709
-0.010021545135364815 -1.28215424777015 0.6847471095330168
-0.011440833568203555 -1.3365655942429222 0.7147140843578351
-0.00038748044771459196 0.000692023456455009 -0.0004456972579681128
0.01747958408210739 -0.042782536999143625 0.027450177545467715
0.027098364519972253 -0.07852038119494628 0.04955677329829166
0.03956555448084699 -0.1264194696131083 0.0785411496884715
0.04581754043797421 -0.15586494199793413 0.09499000851187547
0.05281749017818083 -0.18884163468004087 0.11277304062331317
0.05378152449191369 -0.20094558766760484 0.11765357703625645
0.05653585464757893 -0.21981229227110907 0.12623555883916596
0.05897450742572834 -0.23838498107392705 0.13437316808536223
0.06271646716286758 -0.2640650003974071 0.14628439660962583
0.06754543559039085 -0.2972803659374935 0.16207355459842393
0.0704540313966885 -0.3254448010051332 0.1749010974495564
0.07394054063258794 -0.359646671553248 0.1908777916490905
0.0725441763820002 -0.37445800379980887 0.19669782782863307
0.06815497721792681 -0.3708202511000537 0.19283328578164166
0.06406487354681908 -0.3671654857039874 0.1893103266437765
0.05970806460162406 -0.3600181543746199 0.18427641653896942
0.055642092782587596 -0.3524404145819777 0.17926753218968172
0.05411931618915658 -0.3595574835571125 0.18189290814922646
0.056589517382552454 -0.39387253101765857 0.1983074652920105
0.054571678466310974 -0.39762923723882426 0.19937207741807958
0.048912715240835035 -0.3756874901189709 0.18760119321913982
0.04632517388782301 -0.3756459214081948 0.18699196894126363
0.04516524678910643 -0.3874332893939321 0.19239670701173714
0.04342012022187576 -0.3954669427290674 0.196069937131848
0.04196518513727856 -0.40795957781446857 0.2021080200831485
0.03967858628326586 -0.4179093401577302 0.20717430320478664