# vtk DataFile Version 4.0
[MyVLM domain - lattices] 
ASCII
DATASET UNSTRUCTURED_GRID
POINTS 152 float
0.0018916144324157278 -0.009389359941067967 0.0037828484684815965
0.0010688609733395774 -0.013476872289928851 0.002589172987819253
0.00045780959861706216 -0.017498254107773427 0.0014329174775237115
-0.00013255382275044122 -0.021384983134535848 0.0001953979017114755
-0.0007201482309470062 -0.025165829084892025 -0.0010735551320795202
-0.0011946371146526612 -0.028766000648838684 -0.0025034839727395833
-0.0014108622120167862 -0.03203358688678498 -0.004357506085865575
-0.0013224843579428829 -0.03509523022161924 -0.006416270360621295
-0.0010167791708201568 -0.03813578247912261 -0.008359604042881937
-0.0006138083932142036 -0.04103160410757101 -0.01040165711805865
-0.00020084691410191335 -0.043839785611356964 -0.012443545931913814
0.0001698744379422134 -0.046632050181640385 -0.014361042273277506
0.0004739400232210948 -0.04937156523259369 -0.01621794205217725
0.0007082255455298663 -0.05201742821618988 -0.018085090559954803
0.0008836440760600275 -0.05457551730850605 -0.01995230649698886
0.001017516815515788 -0.05707545295056192 -0.021768285754490604
0.0011275777072549662 -0.059544364616172546 -0.02348603870542979
0.0012277625198140337 -0.061989031757411356 -0.025093822994367746
0.00132638558954348 -0.06439254173004727 -0.026620932180403054
0.0014271324949937316 -0.06672998234487375 -0.0281105154409692
0.0015306083418583354 -0.06898490836874092 -0.029591056755424068
0.0016355657532635378 -0.07115694652042753 -0.031063202665808403
0.0017398364473795213 -0.07325616618856641 -0.032509512479408954
0.0018410131526058282 -0.07529421483574328 -0.033909812199248046
0.001936923789896676 -0.07727965282889383 -0.03524927483486155
0.0020259353317291845 -0.07921726156952469 -0.03651961875590869
0.0021071205190511294 -0.08110830556611673 -0.037718653769453936
0.002180316672546981 -0.0829509592113976 -0.03884954192004768
0.0022461021518325993 -0.084740837337405 -0.039919878541400326
0.0023056987632523672 -0.08647165398608275 -0.040940551232239476
0.0023607022647827588 -0.08813654313298734 -0.04192345229574729
0.0024126938092907785 -0.08972983204850968 -0.04287840718782426
0.0024629658139780817 -0.09124816943435429 -0.04381122052738952
0.0025123806343549317 -0.09269095322529071 -0.044722935122011705
0.0025613283706516186 -0.09406025080806843 -0.04560997015280177
0.0026097549007438213 -0.09536037565892956 -0.046464854459751175
0.0026572361369983943 -0.0965972506460108 -0.047277329334320585
0.002703078927872171 -0.0977772416125599 -0.04803636881257191
0.0027464329900004744 -0.0989043504764517 -0.048735041369418204
0.0027864017842759935 -0.0999778887376744 -0.0493745395218609
0.0028221433614242725 -0.10099224831527032 -0.04996457675105166
0.0028529549202113143 -0.10193809300249143 -0.05052132384142806
0.002878337166053322 -0.102803951922412 -0.05106464893463285
0.0028980365508205295 -0.10357571076753036 -0.051618998728372494
0.0029120651374179955 -0.10423596200594779 -0.052214523952330026
0.002920699186668212 -0.10476697217443523 -0.05288193986581229
0.0029244586304951574 -0.1051554067219729 -0.053644342588681726
0.002924070395798875 -0.10539668476258235 -0.054509666448196624
0.0029204190990956736 -0.1054977254336701 -0.0554659271468244
0.0029144889643634465 -0.10547755331101842 -0.05648017315271761
0.002907300946956263 -0.10536575894417807 -0.05750115213063055
0.006212993241944028 -0.0020917002902829363 -0.008857068823023503
0.0072288922610571306 -0.004148056446937417 -0.01356881002669549
0.007974780507892725 -0.006893215141663517 -0.016935548828026482
0.008270023946844132 -0.010045738062255572 -0.019444750682953107
0.008140225139500825 -0.013474912489859816 -0.021322816661725568
0.007751519283975376 -0.01698848411447684 -0.022902740997236937
0.007318662739924205 -0.020351955663723543 -0.024590684879491075
0.0069707766105224795 -0.023636939462180925 -0.026262612123865554
0.006702226685381192 -0.026991268777722205 -0.027662467999355046
0.006460614097576536 -0.03026433374738515 -0.02905111644073111
0.006208498480286784 -0.0334920599185906 -0.030366332574571123
0.005928720355726676 -0.03672938557533369 -0.031512960501714864
0.00562110152420414 -0.03992631750005312 -0.03257759101501235
0.005297776270156929 -0.043031606124261795 -0.03364899097094921
0.004977662142563614 -0.046042988705977415 -0.03473107955360322
0.004680078492205027 -0.0489836397774852 -0.03578371729561471
0.0044193472589770496 -0.051875473305041025 -0.03676894809403318
0.0042022226504668725 -0.054721027930121895 -0.03768237489283823
0.004028605706719037 -0.057500078032188096 -0.03855902949441928
0.003894567528214928 -0.06018539467507106 -0.039446073799656325
0.003794542923454683 -0.06275917423451224 -0.04037434459032404
0.0037223892098821663 -0.06522052341773392 -0.04134538909489947
0.0036720478837599236 -0.06757970622347799 -0.04234142954607283
0.0036379885391020494 -0.0698491631731892 -0.04334091832862912
0.003615480687410345 -0.07203873673184306 -0.04432680779315914
0.003600729157216099 -0.07415487652292894 -0.0452879268640895
0.0035909263662617956 -0.07620080694274133 -0.046218690723214516
0.003584242976167935 -0.07817686771874158 -0.0471185109453103
0.00357976601221264 -0.08008096581586266 -0.047991012773455015
0.003577378730160166 -0.0819091627987028 -0.048843017777866864
0.0035774796054096774 -0.08365693172401954 -0.049682366854244764
0.003580588564800478 -0.08532087445417637 -0.050514945749626256
0.0035870678637920984 -0.08689980151067972 -0.051342814701196726
0.0035969747054953923 -0.08839511952563513 -0.05216353735068181
0.0036100119296844893 -0.08981071911991324 -0.05297037494506056
0.0036255480079795204 -0.0911525271280006 -0.053753061905874235
0.0036426825552804717 -0.09242785319026968 -0.054498937564612666
0.0036603380175139954 -0.09364421397528162 -0.05519498266942428
0.003677362157174432 -0.09480652380354575 -0.05583268536750228
0.0036926294639041822 -0.09591477200677183 -0.056412064136867356
0.0037051326977571345 -0.09696380330986804 -0.056942048175905535
0.003714058455611533 -0.09794452383010532 -0.05743838855154164
0.003718842962038476 -0.09884551333704648 -0.057920865683127
0.003719206248598144 -0.09965253878880961 -0.05841413192234741
0.003715164522496519 -0.10034792954406052 -0.05894879371779592
0.0037070218583473346 -0.10091357158477436 -0.05955622546902084
0.003695343396461056 -0.10133566043819935 -0.060260337224199954
0.003680913018392471 -0.10160908440306099 -0.06106998270965379
0.0036646790161518838 -0.10174019905412197 -0.061974153746982064
0.003647691596346039 -0.10174745979519083 -0.06294088463911428
0.0036310361855396924 -0.10165990789282005 -0.06391987443686521
0.005410766489344848 -0.005198187805332235 -0.007613201886607017
0.005892211109850776 -0.008012367645438135 -0.01093637326235287
0.006132458642509649 -0.011212512106758318 -0.013439072894212948
0.006047255650667177 -0.014639095484471754 -0.01539760740805051
0.005720055990603616 -0.018165252443342585 -0.017031714010213327
0.005325630843128663 -0.0216026133587781 -0.01866765846109865
0.005016871435172548 -0.024886937810764707 -0.020416708432069598
0.004834968294868498 -0.028139454677556405 -0.022068889346645627
0.004732241848104854 -0.03136677427025196 -0.02361275181014988
0.00464908530328423 -0.03451757133960691 -0.025137193761984897
0.004547585503985086 -0.03764202153434627 -0.026555308429256158
0.004411660012619469 -0.04074634058004931 -0.02785632985945455
0.004242349868979272 -0.04378284554021604 -0.029122847321252088
0.00405227310746894 -0.0467270912519267 -0.030397201078825115
0.003859297849485217 -0.04959135696368198 -0.031658122849891654
0.0036804214720396232 -0.052399644601789155 -0.03286404007860801
0.003527506244425096 -0.05516536250988408 -0.03399172883255147
0.003405829147614405 -0.057880611421798574 -0.03505487104206792
0.003315379723667389 -0.06052236777458732 -0.036093344687949884
0.003253134023982613 -0.06306857468029559 -0.037145353420791796
0.003214621311891553 -0.06551011848073837 -0.03822668255961288
0.0031948391851961662 -0.06785172520407871 -0.03932914638351679
0.0031888698585714084 -0.07010462365178892 -0.04043329603784536
0.0031922930777549615 -0.07227969592246675 -0.0415202831749343
0.003201436081938149 -0.07438471927034182 -0.04257663719531452
0.0032135028026517493 -0.07642407719158154 -0.043594765660909335
0.003226618152360912 -0.07839903609524539 -0.04457247508688451
0.0032398057236901635 -0.08030816214407692 -0.045512248952218
0.003252904392775423 -0.08214785964589802 -0.04642031517845068
0.003266372004343082 -0.08391331008590465 -0.04730501967804021
0.0032809500730880004 -0.0855999742145106 -0.04817422466189808
0.0032973286136308236 -0.08720500367217904 -0.04903286363346035
0.0033159342695244357 -0.0887279857210737 -0.049881651475629604
0.0033368336138182735 -0.09017108999625054 -0.05071683027025507
0.0033597203855484335 -0.09153879565134244 -0.05153064189566967
0.0033839603409402744 -0.09283734590746891 -0.052312272775691566
0.003408672097906746 -0.09407383671940309 -0.05304943235612541
0.0034328265552422406 -0.09525422567818673 -0.05373180178659622
0.0034553512046890385 -0.09638076583063486 -0.054355478675548505
0.003475228953835527 -0.09745073287535805 -0.054925181651403907
0.0034915839677176984 -0.09845691534221024 -0.05545340134685266
0.0035037495424018335 -0.09938901955329486 -0.05595796693500835
0.0035113151685979642 -0.10023422738343883 -0.056461080059928566
0.003514151750190315 -0.10097663472151107 -0.05699028745014157
0.003512415433327221 -0.10159842969586097 -0.05757644017232408
0.0035065316976985676 -0.10208375937066616 -0.05824699631676955
0.0034971622838568268 -0.10242329075104205 -0.059018121104804956
0.003485158199815951 -0.10261778257097516 -0.05988850037061607
0.0034715024876191118 -0.10267978191157838 -0.06083640193222888
0.003457246657122113 -0.10263317691490362 -0.06182045031391083

CELLS 100 350
4 0 51 52 1
4 1 52 53 2
4 2 53 54 3
4 3 54 55 4
4 4 55 56 5
4 5 56 57 6
4 6 57 58 7
4 7 58 59 8
4 8 59 60 9
4 9 60 61 10
4 10 61 62 11
4 11 62 63 12
4 12 63 64 13
4 13 64 65 14
4 14 65 66 15
4 15 66 67 16
4 16 67 68 17
4 17 68 69 18
4 18 69 70 19
4 19 70 71 20
4 20 71 72 21
4 21 72 73 22
4 22 73 74 23
4 23 74 75 24
4 24 75 76 25
4 25 76 77 26
4 26 77 78 27
4 27 78 79 28
4 28 79 80 29
4 29 80 81 30
4 30 81 82 31
4 31 82 83 32
4 32 83 84 33
4 33 84 85 34
4 34 85 86 35
4 35 86 87 36
4 36 87 88 37
4 37 88 89 38
4 38 89 90 39
4 39 90 91 40
4 40 91 92 41
4 41 92 93 42
4 42 93 94 43
4 43 94 95 44
4 44 95 96 45
4 45 96 97 46
4 46 97 98 47
4 47 98 99 48
4 48 99 100 49
4 49 100 101 50
1 102
1 103
1 104
1 105
1 106
1 107
1 108
1 109
1 110
1 111
1 112
1 113
1 114
1 115
1 116
1 117
1 118
1 119
1 120
1 121
1 122
1 123
1 124
1 125
1 126
1 127
1 128
1 129
1 130
1 131
1 132
1 133
1 134
1 135
1 136
1 137
1 138
1 139
1 140
1 141
1 142
1 143
1 144
1 145
1 146
1 147
1 148
1 149
1 150
1 151

CELL_TYPES 100
9
9
9
9
9
9
9
9
9
9
9
9
9
9
9
9
9
9
9
9
9
9
9
9
9
9
9
9
9
9
9
9
9
9
9
9
9
9
9
9
9
9
9
9
9
9
9
9
9
9
1
1
1
1
1
1
1
1
1
1
1
1
1
1
1
1
1
1
1
1
1
1
1
1
1
1
1
1
1
1
1
1
1
1
1
1
1
1
1
1
1
1
1
1
1
1
1
1
1
1

CELL_DATA 100

VECTORS S float
1.589110080472527e-16 8.808707738406632e-17 2.0315004452122614e-16
8.8145533566e-22 -2.4564642437271e-19 -1.757527570514e-19
1.18442164500552e-18 1.3687063810307659e-17 1.0367199141136279e-17
3.98519256578e-21 -2.3046606667969e-19 -1.6433605767860999e-19
-2.5940371437091997e-19 3.437470182715698e-17 2.469090904813472e-17
-2.2744654055357e-19 3.54764509277902e-17 2.5553982867613938e-17
-5.338648690761e-20 9.10498562428609e-18 6.57464810060962e-18
-2.3110373297087997e-19 4.2441388867067835e-17 3.073187788274438e-17
7.130191189405999e-20 -1.3827475558355719e-17 -1.004118833582142e-17
-1.15799551261583e-18 2.3280688724763043e-16 1.6959855396665816e-16
3.439063648771e-19 -6.924541578801605e-17 -5.0620973537330305e-17
-5.751995567155299e-19 1.1217443588719404e-16 8.230550157672057e-17
9.303526135898999e-20 -1.706174504901404e-17 -1.256490204781902e-17
6.233040054153699e-19 -1.0879972168879953e-16 -8.041090262004567e-17
8.8123160462007e-19 -1.4861300079274594e-16 -1.1020112263837163e-16
4.3821985005943e-19 -7.259872136121537e-17 -5.3977959989991625e-17
2.9957623724693e-19 -4.976435974696649e-17 -3.709147104705472e-17
4.0655158654737e-19 -6.80571845693624e-17 -5.083352310290191e-17
-6.030192935349699e-19 1.0037080249785114e-16 7.513921949680919e-17
-1.0450446089214099e-18 1.6583496677800824e-16 1.2428593221864178e-16
6.7110449622059e-19 -1.0769958643728932e-16 -8.081071496932858e-17
-2.0307938781614998e-19 3.308993890666532e-17 2.485673038265572e-17
8.428011997694999e-20 -1.364878340189488e-17 -1.026377375935297e-17
-3.957922756205e-20 6.3080038658973796e-18 4.748465398685789e-18
-1.01785248061629e-18 1.5963866242234713e-16 1.2029396074564464e-16
4.0925250774369996e-19 -6.404204139374669e-17 -4.827710161155922e-17
1.3826516234244998e-19 -2.191266063861422e-17 -1.6517522643158518e-17
5.6313147056481e-19 -8.799801963248241e-17 -6.639675290447997e-17
-1.24072520611562e-18 1.9201170466396522e-16 1.450182556259692e-16
-6.4198194491747e-19 9.886657286588721e-17 7.473738568529453e-17
2.3983002983172e-19 -3.729732299059784e-17 -2.821677125341463e-17
-9.623787953628599e-19 1.5715948308879956e-16 1.189703040753138e-16
3.6880993777821996e-19 -6.261129254053873e-17 -4.74136126701426e-17
9.044620604173999e-20 -1.6407148413532418e-17 -1.242549232981962e-17
1.1076172586557e-19 -2.170106405555028e-17 -1.643061386506421e-17
-3.6158162194285e-19 7.709100163641972e-17 5.833505157942634e-17
-2.021393938928e-20 4.75105194155596e-18 3.58899048826329e-18
-1.8360776385762e-19 4.636227095054209e-17 3.498163895284623e-17
-1.6193133326344e-19 4.4254279630169026e-17 3.3345111465701e-17
-3.4316081826891e-19 1.0045110406701274e-16 7.557252133832427e-17
-4.2687945773869996e-20 1.3516764054617869e-17 1.015568492586639e-17
-1.7036237996761998e-19 5.656684462354509e-17 4.2431000571991436e-17
-1.5216460975728998e-19 4.402086084443208e-17 3.296608328881416e-17
-2.5052013300181e-19 7.074682507993522e-17 5.289695315601458e-17
3.866156960545e-19 -6.63953822978751e-17 -4.9565054360935486e-17
-2.5524477575228e-19 3.172420675864302e-17 2.3651181249996878e-17
-4.921007302286199e-19 4.6936722569325105e-17 3.495245575237964e-17
-1.44582374921253e-18 1.0135994268276896e-16 7.540957168542854e-17
6.6756606449266e-19 -3.273404321283436e-17 -2.433677651360226e-17
1.3833030327044499e-18 -3.377391685775146e-17 -2.5107949147563317e-17
1.589110080472527e-16 8.808707738406632e-17 2.0315004452122614e-16
8.8145533566e-22 -2.4564642437271e-19 -1.757527570514e-19
1.18442164500552e-18 1.3687063810307659e-17 1.0367199141136279e-17
3.98519256578e-21 -2.3046606667969e-19 -1.6433605767860999e-19
-2.5940371437091997e-19 3.437470182715698e-17 2.469090904813472e-17
-2.2744654055357e-19 3.54764509277902e-17 2.5553982867613938e-17
-5.338648690761e-20 9.10498562428609e-18 6.57464810060962e-18
-2.3110373297087997e-19 4.2441388867067835e-17 3.073187788274438e-17
7.130191189405999e-20 -1.3827475558355719e-17 -1.004118833582142e-17
-1.15799551261583e-18 2.3280688724763043e-16 1.6959855396665816e-16
3.439063648771e-19 -6.924541578801605e-17 -5.0620973537330305e-17
-5.751995567155299e-19 1.1217443588719404e-16 8.230550157672057e-17
9.303526135898999e-20 -1.706174504901404e-17 -1.256490204781902e-17
6.233040054153699e-19 -1.0879972168879953e-16 -8.041090262004567e-17
8.8123160462007e-19 -1.4861300079274594e-16 -1.1020112263837163e-16
4.3821985005943e-19 -7.259872136121537e-17 -5.3977959989991625e-17
2.9957623724693e-19 -4.976435974696649e-17 -3.709147104705472e-17
4.0655158654737e-19 -6.80571845693624e-17 -5.083352310290191e-17
-6.030192935349699e-19 1.0037080249785114e-16 7.513921949680919e-17
-1.0450446089214099e-18 1.6583496677800824e-16 1.2428593221864178e-16
6.7110449622059e-19 -1.0769958643728932e-16 -8.081071496932858e-17
-2.0307938781614998e-19 3.308993890666532e-17 2.485673038265572e-17
8.428011997694999e-20 -1.364878340189488e-17 -1.026377375935297e-17
-3.957922756205e-20 6.3080038658973796e-18 4.748465398685789e-18
-1.01785248061629e-18 1.5963866242234713e-16 1.2029396074564464e-16
4.0925250774369996e-19 -6.404204139374669e-17 -4.827710161155922e-17
1.3826516234244998e-19 -2.191266063861422e-17 -1.6517522643158518e-17
5.6313147056481e-19 -8.799801963248241e-17 -6.639675290447997e-17
-1.24072520611562e-18 1.9201170466396522e-16 1.450182556259692e-16
-6.4198194491747e-19 9.886657286588721e-17 7.473738568529453e-17
2.3983002983172e-19 -3.729732299059784e-17 -2.821677125341463e-17
-9.623787953628599e-19 1.5715948308879956e-16 1.189703040753138e-16
3.6880993777821996e-19 -6.261129254053873e-17 -4.74136126701426e-17
9.044620604173999e-20 -1.6407148413532418e-17 -1.242549232981962e-17
1.1076172586557e-19 -2.170106405555028e-17 -1.643061386506421e-17
-3.6158162194285e-19 7.709100163641972e-17 5.833505157942634e-17
-2.021393938928e-20 4.75105194155596e-18 3.58899048826329e-18
-1.8360776385762e-19 4.636227095054209e-17 3.498163895284623e-17
-1.6193133326344e-19 4.4254279630169026e-17 3.3345111465701e-17
-3.4316081826891e-19 1.0045110406701274e-16 7.557252133832427e-17
-4.2687945773869996e-20 1.3516764054617869e-17 1.015568492586639e-17
-1.7036237996761998e-19 5.656684462354509e-17 4.2431000571991436e-17
-1.5216460975728998e-19 4.402086084443208e-17 3.296608328881416e-17
-2.5052013300181e-19 7.074682507993522e-17 5.289695315601458e-17
3.866156960545e-19 -6.63953822978751e-17 -4.9565054360935486e-17
-2.5524477575228e-19 3.172420675864302e-17 2.3651181249996878e-17
-4.921007302286199e-19 4.6936722569325105e-17 3.495245575237964e-17
-1.44582374921253e-18 1.0135994268276896e-16 7.540957168542854e-17
6.6756606449266e-19 -3.273404321283436e-17 -2.433677651360226e-17
1.3833030327044499e-18 -3.377391685775146e-17 -2.5107949147563317e-17

SCALARS Gamma float
LOOKUP_TABLE default
-0.00011093542878924847
0.0020382752510179334
-0.0013865117408041032
0.012175497554997741
0.05700879299967994
0.10438580770894215
0.16022446167009952
0.21905649769959526
0.26754224868272436
0.30869805511402615
0.34614622937777917
0.3520089282427418
0.3288596779180382
0.3222380360326994
0.30674951726301897
0.29344455589745355
0.2790649183815538
0.26455127754858265
0.2546853958232216
0.2376938213730509
0.2299413510940042
0.22102897194363602
0.20613811119516948
0.19412956357447939
0.18276835219160495
0.17495347072330017
0.16913885400453832
0.15950473625545994
0.15147913825160492
0.1449041466751117
0.141128927353224
0.1465082614532074
0.14696271901863275
0.148775847873128
0.15168311510140253
0.15443032486057687
0.15810098787809965
0.160071252654199
0.16159294948464772
0.16081983612510303
0.16168076597302863
0.15792490919204952
0.1512967201170775
0.15526391277622553
0.11104046865527391
0.08484444380526698
0.067092698285957
0.05102461003919739
0.03659739612373843
0.019021802193113217
-0.00011093542878924847
0.0020382752510179334
-0.0013865117408041032
0.012175497554997741
0.05700879299967994
0.10438580770894215
0.16022446167009952
0.21905649769959526
0.26754224868272436
0.30869805511402615
0.34614622937777917
0.3520089282427418
0.3288596779180382
0.3222380360326994
0.30674951726301897
0.29344455589745355
0.2790649183815538
0.26455127754858265
0.2546853958232216
0.2376938213730509
0.2299413510940042
0.22102897194363602
0.20613811119516948
0.19412956357447939
0.18276835219160495
0.17495347072330017
0.16913885400453832
0.15950473625545994
0.15147913825160492
0.1449041466751117
0.141128927353224
0.1465082614532074
0.14696271901863275
0.148775847873128
0.15168311510140253
0.15443032486057687
0.15810098787809965
0.160071252654199
0.16159294948464772
0.16081983612510303
0.16168076597302863
0.15792490919204952
0.1512967201170775
0.15526391277622553
0.11104046865527391
0.08484444380526698
0.067092698285957
0.05102461003919739
0.03659739612373843
0.019021802193113217

VECTORS Ftot float
0.04680642514893402 0.036814541905525994 -0.05257661464150126
-0.016393089264035703 0.002698610094824558 -0.0038540146278978607
0.04772515648559207 0.05052300967148974 -0.07215433555695101
-0.10850497929801933 0.1022218104725089 -0.14598787487188458
-0.7792740300269325 0.22775264503369147 -0.3252644860351125
-1.6897661677313862 0.37738058343567055 -0.5389553280168319
-2.9666974458348276 0.5565352321596311 -0.7948146824905411
-4.552587214835547 0.7264610255373745 -1.037493865597039
-6.145940258542764 0.8545119931094922 -1.220369599696559
-7.7489913567657895 0.9541037061767603 -1.3626013062016114
-9.40280833791058 1.0606328225736084 -1.5147406514437693
-10.26557235545216 1.0995810656089575 -1.570364507100811
-10.227715325777336 1.0778701977376575 -1.5393581744257723
-10.637079666773094 1.097895476879988 -1.5679572369173462
-10.702799855436172 1.0753812984833686 -1.5358036579167778
-10.779361939804598 1.0521038904901856 -1.5025600740891902
-10.75967658245406 1.0048609539909281 -1.435090168495131
-10.6714205972908 0.9554845834398991 -1.3645734033125185
-10.7167653693399 0.9313014482922921 -1.330036307054688
-10.392363872318167 0.9311322289490359 -1.3297946367869147
-10.43133180612665 0.9079695870013423 -1.2967149558584345
-10.380973122531328 0.8750641319856565 -1.2497210958668403
-9.999241939542802 0.8348855174716278 -1.1923400876349701
-9.705781004686578 0.8112802692179999 -1.1586282993928985
-9.401669445262677 0.7870365350755862 -1.1240046588014245
-9.242860247906732 0.771215920139258 -1.1014104791146726
-9.165819891379806 0.7557900392569913 -1.0793800380804222
-8.851258395279944 0.7301716224523724 -1.0427931471850167
-8.596269379461702 0.7065268670719815 -1.0090249369186064
-8.398742630428435 0.6851588912635753 -0.9785083048597172
-8.34544447430052 0.6670732041452816 -0.9526792668511643
-8.83161664693246 0.6667357690554873 -0.9521973596002697
-9.018981638428727 0.6519115709323754 -0.9310262105991972
-9.286602386048054 0.6276185556701986 -0.8963321892747637
-9.620161708474466 0.6039534911490783 -0.8625349745495018
-9.941624321373615 0.5779194446676885 -0.8253545029596733
-10.32085097928067 0.5569904786012744 -0.7954648417887505
-10.585454767996705 0.5403783213274542 -0.7717402224904576
-10.816141697471823 0.5201144260579542 -0.7428003808524901
-10.886195121288258 0.4995847356845731 -0.713480944466713
-11.060462428568094 0.4783395067427836 -0.6831396131007161
-10.908466490406965 0.4610360826785458 -0.6584277625135613
-10.543399255809137 0.5243626435635438 -0.7488674642153047
-10.909168404975395 0.5696227550625848 -0.8135056022375865
-7.862446873676455 0.692290667293267 -0.9886935365810526
-6.052399034100632 0.7524146846815547 -1.0745595321714645
-4.82028641669853 0.7958465857458276 -1.1365867151054267
-3.6924274436015367 0.842570414688045 -1.2033152582766145
-2.6695634797176937 0.8811527501645077 -1.2584165437827806
-1.4083605905314354 0.934853930754064 -1.335109777801454
0.04680642514893402 0.036814541905525994 -0.05257661464150126
-0.016393089264035703 0.002698610094824558 -0.0038540146278978607
0.04772515648559207 0.05052300967148974 -0.07215433555695101
-0.10850497929801933 0.1022218104725089 -0.14598787487188458
-0.7792740300269325 0.22775264503369147 -0.3252644860351125
-1.6897661677313862 0.37738058343567055 -0.5389553280168319
-2.9666974458348276 0.5565352321596311 -0.7948146824905411
-4.552587214835547 0.7264610255373745 -1.037493865597039
-6.145940258542764 0.8545119931094922 -1.220369599696559
-7.7489913567657895 0.9541037061767603 -1.3626013062016114
-9.40280833791058 1.0606328225736084 -1.5147406514437693
-10.26557235545216 1.0995810656089575 -1.570364507100811
-10.227715325777336 1.0778701977376575 -1.5393581744257723
-10.637079666773094 1.097895476879988 -1.5679572369173462
-10.702799855436172 1.0753812984833686 -1.5358036579167778
-10.779361939804598 1.0521038904901856 -1.5025600740891902
-10.75967658245406 1.0048609539909281 -1.435090168495131
-10.6714205972908 0.9554845834398991 -1.3645734033125185
-10.7167653693399 0.9313014482922921 -1.330036307054688
-10.392363872318167 0.9311322289490359 -1.3297946367869147
-10.43133180612665 0.9079695870013423 -1.2967149558584345
-10.380973122531328 0.8750641319856565 -1.2497210958668403
-9.999241939542802 0.8348855174716278 -1.1923400876349701
-9.705781004686578 0.8112802692179999 -1.1586282993928985
-9.401669445262677 0.7870365350755862 -1.1240046588014245
-9.242860247906732 0.771215920139258 -1.1014104791146726
-9.165819891379806 0.7557900392569913 -1.0793800380804222
-8.851258395279944 0.7301716224523724 -1.0427931471850167
-8.596269379461702 0.7065268670719815 -1.0090249369186064
-8.398742630428435 0.6851588912635753 -0.9785083048597172
-8.34544447430052 0.6670732041452816 -0.9526792668511643
-8.83161664693246 0.6667357690554873 -0.9521973596002697
-9.018981638428727 0.6519115709323754 -0.9310262105991972
-9.286602386048054 0.6276185556701986 -0.8963321892747637
-9.620161708474466 0.6039534911490783 -0.8625349745495018
-9.941624321373615 0.5779194446676885 -0.8253545029596733
-10.32085097928067 0.5569904786012744 -0.7954648417887505
-10.585454767996705 0.5403783213274542 -0.7717402224904576
-10.816141697471823 0.5201144260579542 -0.7428003808524901
-10.886195121288258 0.4995847356845731 -0.713480944466713
-11.060462428568094 0.4783395067427836 -0.6831396131007161
-10.908466490406965 0.4610360826785458 -0.6584277625135613
-10.543399255809137 0.5243626435635438 -0.7488674642153047
-10.909168404975395 0.5696227550625848 -0.8135056022375865
-7.862446873676455 0.692290667293267 -0.9886935365810526
-6.052399034100632 0.7524146846815547 -1.0745595321714645
-4.82028641669853 0.7958465857458276 -1.1365867151054267
-3.6924274436015367 0.842570414688045 -1.2033152582766145
-2.6695634797176937 0.8811527501645077 -1.2584165437827806
-1.4083605905314354 0.934853930754064 -1.335109777801454

VECTORS D float
0.046251338280077936 0.0376172475224206 -0.0524904644162678
-0.0012414891916957174 -0.0015051501487332484 0.0020974944637732348
0.03407397658794053 0.05430647521928621 -0.07558976502457139
0.04000981521758595 0.07813376434473814 -0.10860510333131226
0.04746384455979478 0.10845185135413674 -0.15048809049844064
0.059299054103164946 0.15337715510654185 -0.21240484428540454
0.0711124882619701 0.20296137901482028 -0.28049622794574464
0.07329369091373741 0.22573080011366167 -0.3111879546643207
0.0673506858423474 0.2209804437873109 -0.30382852613093003
0.05679046986782411 0.19647663851979794 -0.269314510372448
0.0503699060805268 0.18270093144278732 -0.24957796242297564
0.0479684271979064 0.1820392778153611 -0.24776669225666462
0.051142859876170746 0.20306116122303655 -0.2753558809803461
0.054871185616292346 0.22810935885103786 -0.30821732526664214
0.05499407627245971 0.23955266055350422 -0.3226117517090068
0.054788321998973044 0.2507573027362961 -0.3368161787470641
0.05018693026796304 0.24053801007566078 -0.32231628773443577
0.045925755831796033 0.2301627880946118 -0.30778036237594736
0.044148342224750545 0.2298540759099579 -0.3066842576841502
0.05142171806115419 0.2780395194278698 -0.37055631040393033
0.049019353212631026 0.2740811730143984 -0.3648715629696651
0.04553896396255652 0.26215123552834135 -0.34861062616114413
0.04394045646472877 0.25929345836138123 -0.34444805844813525
0.04390130892796822 0.26441132919778726 -0.3508860162130509
0.04349290138855592 0.2662354239896435 -0.3529453794223233
0.043314043602029936 0.27112040719431557 -0.359287889708567
0.04266113642034423 0.27509692337996877 -0.3645950489006057
0.042068252657094664 0.27812502856463545 -0.368252372252422
0.04130951579052288 0.2817002009857829 -0.37263227174200747
0.0404750509496542 0.28705973678986374 -0.37939015222802047
0.03912854589845514 0.2916364925034287 -0.38515662046557436
0.037028367052186824 0.2936335645878166 -0.3875896953551879
0.03505982370234785 0.3000207755471139 -0.3959149509491495
0.031774813864227966 0.29814264978449345 -0.39344894047568674
0.028592977059245687 0.29949215621778374 -0.39536754451656586
0.02542883503096384 0.303440893411221 -0.4008459267284397
0.02258763256889634 0.31815975740055125 -0.421047911112856
0.020098784167309827 0.3389865011790774 -0.44916402415001766
0.01711867144532878 0.35753766723633196 -0.47442635995313637
0.013964116181128665 0.37769250337720767 -0.5019660103003847
0.01044137130249352 0.39511939562059906 -0.5258424185367585
0.007037485510084869 0.4155027374530527 -0.5538987898130759
0.0043030373158109755 0.5161242666254378 -0.6891804388927235
0.0003840700725638524 0.5918631851208515 -0.7915833051520755
-0.0049154567728361374 0.7403404239323476 -0.9917690296945132
-0.01015131017450616 0.8106903465782174 -1.0875185881456053
-0.015116971212572047 0.8584380694717763 -1.1529864701873678
-0.01989337763102589 0.9050509068275195 -1.2168835906090714
-0.02416601719313817 0.9401027676378623 -1.2651427774810788
-0.028423058693236733 0.9854272224653993 -1.327111768004922
0.046251338280077936 0.0376172475224206 -0.0524904644162678
-0.0012414891916957174 -0.0015051501487332484 0.0020974944637732348
0.03407397658794053 0.05430647521928621 -0.07558976502457139
0.04000981521758595 0.07813376434473814 -0.10860510333131226
0.04746384455979478 0.10845185135413674 -0.15048809049844064
0.059299054103164946 0.15337715510654185 -0.21240484428540454
0.0711124882619701 0.20296137901482028 -0.28049622794574464
0.07329369091373741 0.22573080011366167 -0.3111879546643207
0.0673506858423474 0.2209804437873109 -0.30382852613093003
0.05679046986782411 0.19647663851979794 -0.269314510372448
0.0503699060805268 0.18270093144278732 -0.24957796242297564
0.0479684271979064 0.1820392778153611 -0.24776669225666462
0.051142859876170746 0.20306116122303655 -0.2753558809803461
0.054871185616292346 0.22810935885103786 -0.30821732526664214
0.05499407627245971 0.23955266055350422 -0.3226117517090068
0.054788321998973044 0.2507573027362961 -0.3368161787470641
0.05018693026796304 0.24053801007566078 -0.32231628773443577
0.045925755831796033 0.2301627880946118 -0.30778036237594736
0.044148342224750545 0.2298540759099579 -0.3066842576841502
0.05142171806115419 0.2780395194278698 -0.37055631040393033
0.049019353212631026 0.2740811730143984 -0.3648715629696651