# vtk DataFile Version 4.0
[MyVLM domain - lattices] 
ASCII
DATASET UNSTRUCTURED_GRID
POINTS 152 float
0.0018916144324157278 0.006240000000000126 -0.00797072284290617
0.0010688609733395774 0.01037672727272748 -0.008980725727208394
0.00045780959861706216 0.014437473840445556 -0.00999006999094898
-0.00013255382275044122 0.018422239703154354 -0.010861711113996224
-0.0007201482309470062 0.022331024860853872 -0.01165318852570195
-0.0011946371146526612 0.026163829313544114 -0.012214919606059605
-0.0014108622120167862 0.02992065306122508 -0.0122430824758875
-0.0013224843579428829 0.03360149610389676 -0.011990961980962288
-0.0010167791708201568 0.037206358441559166 -0.011828261772846262
-0.0006138083932142036 0.04073524007421231 -0.01150770274809125
-0.00020084691410191335 0.044188141001856154 -0.011143465915482341
0.0001698744379422134 0.04756506122449073 -0.010878997657339339
0.0004739400232210948 0.05086600074211602 -0.010640632802007065
0.0007082255455298663 0.054090959554732046 -0.01034656625343156
0.0008836440760600275 0.05723993766233878 -0.010008554363766946
0.001017516815515788 0.060312935064936235 -0.009685838015052736
0.0011275777072549662 0.06330995176252442 -0.009432676154918988
0.0012277625198140337 0.06623098775510333 -0.00926262768751259
0.00132638558954348 0.06907604304267297 -0.009141867324371365
0.0014271324949937316 0.07184511762523332 -0.009020570687082232
0.0015306083418583354 0.07453821150278439 -0.008865847309345474
0.0016355657532635378 0.0771553246753262 -0.008676950628718545
0.0017398364473795213 0.07969645714285872 -0.008474019422467144
0.0018410131526058282 0.08216160890538196 -0.00828034861576266
0.001936923789896676 0.08455077996289594 -0.008113058942476555
0.0020259353317291845 0.08686397031540062 -0.007981713205622009
0.0021071205190511294 0.08910117996289603 -0.007888840422160794
0.002180316672546981 0.09126240890538216 -0.007830789377548221
0.0022461021518325993 0.09334765714285902 -0.007798789735859708
0.0023056987632523672 0.0953569246753266 -0.007780269580982836
0.0023607022647827588 0.0972902115027849 -0.007761496864030604
0.0024126938092907785 0.09914751762523391 -0.007731126125784862
0.0024629658139780817 0.10092884304267366 -0.007682454769654645
0.0025123806343549317 0.10263418775510412 -0.007614278665178988
0.0025613283706516186 0.1042635517625253 -0.0075307325858569255
0.0026097549007438213 0.10581693506493722 -0.00744044348417263
0.0026572361369983943 0.10729433766233985 -0.007355257096399548
0.002703078927872171 0.10869575955473322 -0.007287905109033153
0.0027464329900004744 0.11002120074211728 -0.007246391357823113
0.0027864017842759935 0.11127066122449207 -0.007229338842745866
0.0028221433614242725 0.1124441410018576 -0.007225531401886036
0.0028529549202113143 0.11354164007421384 -0.007216296621747548
0.002878337166053322 0.1145631584415608 -0.007178692748478917
0.0028980365508205295 0.1155086961038985 -0.0070844911670769
0.0029120651374179955 0.1163782530612269 -0.006898876813743959
0.002920699186668212 0.11717182931354603 -0.006586382762022024
0.0029244586304951574 0.11788942486085588 -0.00612033990987149
0.002924070395798875 0.11853103970315644 -0.005491586485335503
0.0029204190990956736 0.11909667384044775 -0.004713960763227052
0.0029144889643634465 0.11958632727272978 -0.00382551189511077
0.002907300946956263 0.12000000000000248 -0.002885420980088105
0.006212993241944028 0.006240000000000121 0.006624596458664195
0.0072288922610571306 0.010376727272727475 0.009676905958774856
0.007974780507892725 0.014437473840445551 0.011220007941271282
0.008270023946844132 0.018422239703154347 0.0118167790305648
0.008140225139500825 0.022331024860853865 0.011728644664362953
0.007751519283975376 0.026163829313544107 0.011340113462664567
0.007318662739924205 0.029920653061225065 0.011120179970235863
0.0069707766105224795 0.033601496103896754 0.010925619537914823
0.006702226685381192 0.037206358441559166 0.01046076562995501
0.006460614097576536 0.0407352400742123 0.01002683797228091
0.006208498480286784 0.04418814100185615 0.009551985470050815
0.005928720355726676 0.04756506122449072 0.008926331555274468
0.00562110152420414 0.05086600074211602 0.008249862663074469
0.005297776270156929 0.05409095955473203 0.0076250779304249975
0.004977662142563614 0.05723993766233878 0.00705650284129068
0.004680078492205027 0.060312935064936235 0.0064977883311010546
0.0044193472589770496 0.06330995176252442 0.005905106467344383
0.0042022226504668725 0.06623098775510332 0.005273379967066644
0.004028605706719037 0.06907604304267295 0.004643060071347274
0.003894567528214928 0.07184511762523331 0.004068604652523405
0.003794542923454683 0.07453821150278439 0.0035856209591121437
0.0037223892098821663 0.0771553246753262 0.0031958955766689264
0.0036720478837599236 0.07969645714285871 0.0028789005077099576
0.0036379885391020494 0.08216160890538196 0.002609754709345695
0.003615480687410345 0.08455077996289592 0.002368773251625219
0.003600729157216099 0.08686397031540062 0.002143056887569687
0.0035909263662617956 0.08910117996289603 0.0019261568245902247
0.003584242976167935 0.09126240890538216 0.0017173936077640162
0.00357976601221264 0.09334765714285902 0.0015209533072251796
0.003577378730160166 0.0953569246753266 0.0013447127937772619
0.0035774796054096774 0.0972902115027849 0.0011977259539051757
0.003580588564800478 0.09914751762523391 0.0010867890628819409
0.0035870678637920984 0.10092884304267366 0.0010142810776947056
0.0035969747054953923 0.10263418775510412 0.000977388734132362
0.0036100119296844893 0.1042635517625253 0.0009683307904536494
0.0036255480079795204 0.10581693506493722 0.0009752535776854605
0.0036426825552804717 0.10729433766233985 0.0009835378150828673
0.0036603380175139954 0.10869575955473322 0.0009781501655235676
0.003677362157174432 0.11002120074211728 0.0009492619879889472
0.0036926294639041822 0.11127066122449207 0.0008968946190594408
0.0037051326977571345 0.1124441410018576 0.0008313586089186943
0.003714058455611533 0.11354164007421384 0.0007708417230248437
0.003718842962038476 0.1145631584415608 0.0007381844222522371
0.003719206248598144 0.1155086961038985 0.0007618527903647653
0.003715164522496519 0.1163782530612269 0.000877188110030738
0.0037070218583473346 0.11717182931354603 0.0011204184172998817
0.003695343396461056 0.11788942486085588 0.0015191526576757634
0.003680913018392471 0.11853103970315644 0.0020836142337073652
0.0036646790161518838 0.11909667384044775 0.0028010919958693014
0.003647691596346039 0.11958632727272978 0.0036346751365445872
0.0036310361855396924 0.12000000000000248 0.004526281122628097
0.005410766489344848 0.0083083636363638 0.003994132335275324
0.005892211109850776 0.012407100556586514 0.005464993247747631
0.006132458642509649 0.01642985677179995 0.0060323224763203795
0.006047255650667177 0.02037663228200411 0.006015171430635637
0.005720055990603616 0.02424742708719899 0.005667270781165124
0.005325630843128663 0.02804224118738459 0.0053653597770942744
0.005016871435172548 0.031761074582560916 0.0052379192584502835
0.004834968294868498 0.03540392727272796 0.005042491468725117
0.004732241848104854 0.038970799257885734 0.004765855785721282
0.00464908530328423 0.04246169053803423 0.004510662707927698
0.004547585503985086 0.04587660111317343 0.00417656093789427
0.004411660012619469 0.04921553098330338 0.00375111902446255
0.004242349868979272 0.05247848014842403 0.0033297028406324702
0.00405227310746894 0.05566544860853541 0.0029612027122435675
0.003859297849485217 0.05877643636363751 0.002621060142294439
0.0036804214720396232 0.06181144341373034 0.002261271278170575
0.003527506244425096 0.06477046975881387 0.0018550194326001864
0.003405829147614405 0.06765351539888814 0.0014181031379197247
0.003315379723667389 0.07046058033395314 0.0009965695200198034
0.003253134023982613 0.07319166456400886 0.0006345323548098679
0.003214621311891553 0.0758467680890553 0.0003502189586598985
0.0031948391851961662 0.07842589090909247 0.0001341772752438693
0.0031888698585714084 0.08092903302412034 -3.6050298382855305e-5
0.0031922930777549615 0.08335619443413896 -0.00018222795941581044
0.003201436081938149 0.08570737513914828 -0.0003199102163142313
0.0032135028026517493 0.08798257513914833 -0.0004578640614128839
0.003226618152360912 0.0901817944341391 -0.0005986223128307874
0.0032398057236901635 0.09230503302412059 -0.0007393172960550421
0.003252904392775423 0.0943522909090928 -0.0008727576267294028
0.003266372004343082 0.09632356808905575 -0.0009893062752457658
0.0032809500730880004 0.09821886456400941 -0.0010798847424317646
0.0032973286136308236 0.10003818033395379 -0.0011387963092136955
0.0033159342695244357 0.10178151539888888 -0.0011652154999190545
0.0033368336138182735 0.10344886975881472 -0.001163481584659735
0.0033597203855484335 0.10504024341373128 -0.0011425528707015283
0.0033839603409402744 0.10655563636363853 -0.0011149158002833994
0.003408672097906746 0.10799504860853654 -0.001094762282951675
0.0034328265552422406 0.10935848014842525 -0.0010940075007898405
0.0034553512046890385 0.11064593098330468 -0.0011171575474279774
0.003475228953835527 0.11185740111317484 -0.0011587638200871867
0.0034915839677176984 0.11299289053803571 -0.0012044033784753708
0.0035037495424018335 0.11405239925788732 -0.0012334888667994036
0.0035113151685979642 0.11503592727272964 -0.0012203840347131012
0.003514151750190315 0.1159434745825627 -0.0011332806599542943
0.003512415433327221 0.11677504118738648 -0.0009365549992217655
0.0035065316976985676 0.11753062708720095 -0.0005985011808708219
0.0034971622838568268 0.11821023228200618 -0.00010045321513220081
0.003485158199815951 0.1188138567718021 0.0005560714300209303
0.0034715024876191118 0.11934150055658878 0.0013459785923629801
0.003457246657122113 0.11979316363636612 0.002221491987789898

CELLS 100 350
4 0 51 52 1
4 1 52 53 2
4 2 53 54 3
4 3 54 55 4
4 4 55 56 5
4 5 56 57 6
4 6 57 58 7
4 7 58 59 8
4 8 59 60 9
4 9 60 61 10
4 10 61 62 11
4 11 62 63 12
4 12 63 64 13
4 13 64 65 14
4 14 65 66 15
4 15 66 67 16
4 16 67 68 17
4 17 68 69 18
4 18 69 70 19
4 19 70 71 20
4 20 71 72 21
4 21 72 73 22
4 22 73 74 23
4 23 74 75 24
4 24 75 76 25
4 25 76 77 26
4 26 77 78 27
4 27 78 79 28
4 28 79 80 29
4 29 80 81 30
4 30 81 82 31
4 31 82 83 32
4 32 83 84 33
4 33 84 85 34
4 34 85 86 35
4 35 86 87 36
4 36 87 88 37
4 37 88 89 38
4 38 89 90 39
4 39 90 91 40
4 40 91 92 41
4 41 92 93 42
4 42 93 94 43
4 43 94 95 44
4 44 95 96 45
4 45 96 97 46
4 46 97 98 47
4 47 98 99 48
4 48 99 100 49
4 49 100 101 50
1 102
1 103
1 104
1 105
1 106
1 107
1 108
1 109
1 110
1 111
1 112
1 113
1 114
1 115
1 116
1 117
1 118
1 119
1 120
1 121
1 122
1 123
1 124
1 125
1 126
1 127
1 128
1 129
1 130
1 131
1 132
1 133
1 134
1 135
1 136
1 137
1 138
1 139
1 140
1 141
1 142
1 143
1 144
1 145
1 146
1 147
1 148
1 149
1 150
1 151

CELL_TYPES 100
9
9
9
9
9
9
9
9
9
9
9
9
9
9
9
9
9
9
9
9
9
9
9
9
9
9
9
9
9
9
9
9
9
9
9
9
9
9
9
9
9
9
9
9
9
9
9
9
9
9
1
1
1
1
1
1
1
1
1
1
1
1
1
1
1
1
1
1
1
1
1
1
1
1
1
1
1
1
1
1
1
1
1
1
1
1
1
1
1
1
1
1
1
1
1
1
1
1
1
1

CELL_DATA 100

VECTORS S float
8.586138710217e-20 2.115260152973e-20 -3.3165537978189997e-20
3.1710393841925997e-19 -4.740792357695e-19 -1.0823982272428999e-19
3.8999180575921e-19 -2.02007851759309e-18 -1.7401285953366998e-19
-2.925593342067e-20 9.0500183159702e-19 4.703014059292e-20
-3.464076823212e-20 2.15864298656628e-18 1.2341455659661e-19
-6.125114416885999e-20 7.09722070865873e-18 4.630406943050799e-19
5.0735942333529996e-20 -1.1630525747784559e-17 -8.593585171612099e-19
-1.461789490375e-20 1.057379388107296e-17 8.7368829772121e-19
3.10317802391e-21 3.22890580343211e-18 2.9432667952213e-19
7.777561769108e-20 2.678948336000458e-17 2.6561380635525897e-18
-3.802430421756e-20 -8.3141522510544e-18 -8.854995166989099e-19
-7.741581306876999e-20 -1.3006673708426869e-17 -1.4712149247407798e-18
1.8274073979545999e-19 2.567644326786832e-17 3.0523274402685597e-18
1.9343213183149998e-19 2.399421597496232e-17 2.97155210087001e-18
3.4342069667457e-19 3.977742604035622e-17 5.0978188887764995e-18
1.5082954272499999e-21 1.6742743767435999e-19 2.2086053553609998e-20
-1.9919365751517998e-19 -2.1408781296255287e-17 -2.9038346664001997e-18
-2.4478232706272e-19 -2.599859122669632e-17 -3.6042054306092595e-18
4.0680413767000996e-19 4.247201211024555e-17 6.00311205197115e-18
1.8815869193631998e-19 1.88540980767148e-17 2.71102806051282e-18
9.615840805345e-20 9.592358462684179e-18 1.4012749667697598e-18
5.166384137555e-20 5.22181349038218e-18 7.7398076455676e-19
-3.8975409266238e-19 -4.096920873023771e-17 -6.1210198708516495e-18
6.144948673637e-20 6.55933387638198e-18 9.8683238537456e-19
1.3870426568026e-19 1.517936686924335e-17 2.29549349497399e-18
-3.8852859968997e-19 -4.383610972528219e-17 -6.6507608983007e-18
-2.7414879664766e-19 -3.280870744998788e-17 -4.97191098539521e-18
-4.7816651505509996e-20 -6.09729436164016e-18 -9.218689472993499e-19
2.7001347176645997e-19 3.718878426137184e-17 5.59835728278868e-18
1.8340160406378e-19 2.7663005332872358e-17 4.1382565493543e-18
2.1126901126006998e-19 3.4876430391264256e-17 5.17512239605985e-18
6.451351892405e-20 1.217000200075608e-17 1.78599696708442e-18
-1.0540340024508e-19 -2.228679745144882e-17 -3.2300212395797697e-18
6.228095897138999e-20 1.4458557103948518e-17 2.06813027649382e-18
-2.0696984139449998e-20 -5.23770817601849e-18 -7.391150660598399e-19
5.668602153255e-20 1.55658129724567e-17 2.16656195683067e-18
-4.493962076564e-20 -1.3125966585581649e-17 -1.8019863411172e-18
-6.909653467839999e-20 -2.154003319062494e-17 -2.9125240024677098e-18
-9.285507034799999e-21 -3.08111499691743e-18 -4.1111247997837e-19
9.024673472389999e-21 3.11943146054166e-18 4.1099566136748997e-19
2.969192957058e-20 1.085241390384336e-17 1.41292925804279e-18
2.751682633929e-20 1.016941082731402e-17 1.30939680293748e-18
-3.47139009852e-21 -1.0963320906387499e-18 -1.3972315665001998e-19
-2.403379810507e-20 -6.8324494870690595e-18 -8.626714741693899e-19
-3.611611178774e-20 -7.187974352385919e-18 -8.9994704801328e-19
-2.4049739008113e-19 -3.466333028937343e-17 -4.3075370054400195e-18
1.8057229222855998e-19 2.03382860987433e-17 2.51083916232653e-18
9.862310829647e-20 8.31877677795001e-18 1.01859200545092e-18
3.1807090487259e-19 1.9346105677509168e-17 2.3583339067724498e-18
-1.5096894783787e-19 -4.6396561390052394e-18 -5.638772321012299e-19
8.586138710217e-20 2.115260152973e-20 -3.3165537978189997e-20
3.1710393841925997e-19 -4.740792357695e-19 -1.0823982272428999e-19
3.8999180575921e-19 -2.02007851759309e-18 -1.7401285953366998e-19
-2.925593342067e-20 9.0500183159702e-19 4.703014059292e-20
-3.464076823212e-20 2.15864298656628e-18 1.2341455659661e-19
-6.125114416885999e-20 7.09722070865873e-18 4.630406943050799e-19
5.0735942333529996e-20 -1.1630525747784559e-17 -8.593585171612099e-19
-1.461789490375e-20 1.057379388107296e-17 8.7368829772121e-19
3.10317802391e-21 3.22890580343211e-18 2.9432667952213e-19
7.777561769108e-20 2.678948336000458e-17 2.6561380635525897e-18
-3.802430421756e-20 -8.3141522510544e-18 -8.854995166989099e-19
-7.741581306876999e-20 -1.3006673708426869e-17 -1.4712149247407798e-18
1.8274073979545999e-19 2.567644326786832e-17 3.0523274402685597e-18
1.9343213183149998e-19 2.399421597496232e-17 2.97155210087001e-18
3.4342069667457e-19 3.977742604035622e-17 5.0978188887764995e-18
1.5082954272499999e-21 1.6742743767435999e-19 2.2086053553609998e-20
-1.9919365751517998e-19 -2.1408781296255287e-17 -2.9038346664001997e-18
-2.4478232706272e-19 -2.599859122669632e-17 -3.6042054306092595e-18
4.0680413767000996e-19 4.247201211024555e-17 6.00311205197115e-18
1.8815869193631998e-19 1.88540980767148e-17 2.71102806051282e-18
9.615840805345e-20 9.592358462684179e-18 1.4012749667697598e-18
5.166384137555e-20 5.22181349038218e-18 7.7398076455676e-19
-3.8975409266238e-19 -4.096920873023771e-17 -6.1210198708516495e-18
6.144948673637e-20 6.55933387638198e-18 9.8683238537456e-19
1.3870426568026e-19 1.517936686924335e-17 2.29549349497399e-18
-3.8852859968997e-19 -4.383610972528219e-17 -6.6507608983007e-18
-2.7414879664766e-19 -3.280870744998788e-17 -4.97191098539521e-18
-4.7816651505509996e-20 -6.09729436164016e-18 -9.218689472993499e-19
2.7001347176645997e-19 3.718878426137184e-17 5.59835728278868e-18
1.8340160406378e-19 2.7663005332872358e-17 4.1382565493543e-18
2.1126901126006998e-19 3.4876430391264256e-17 5.17512239605985e-18
6.451351892405e-20 1.217000200075608e-17 1.78599696708442e-18
-1.0540340024508e-19 -2.228679745144882e-17 -3.2300212395797697e-18
6.228095897138999e-20 1.4458557103948518e-17 2.06813027649382e-18
-2.0696984139449998e-20 -5.23770817601849e-18 -7.391150660598399e-19
5.668602153255e-20 1.55658129724567e-17 2.16656195683067e-18
-4.493962076564e-20 -1.3125966585581649e-17 -1.8019863411172e-18
-6.909653467839999e-20 -2.154003319062494e-17 -2.9125240024677098e-18
-9.285507034799999e-21 -3.08111499691743e-18 -4.1111247997837e-19
9.024673472389999e-21 3.11943146054166e-18 4.1099566136748997e-19
2.969192957058e-20 1.085241390384336e-17 1.41292925804279e-18
2.751682633929e-20 1.016941082731402e-17 1.30939680293748e-18
-3.47139009852e-21 -1.0963320906387499e-18 -1.3972315665001998e-19
-2.403379810507e-20 -6.8324494870690595e-18 -8.626714741693899e-19
-3.611611178774e-20 -7.187974352385919e-18 -8.9994704801328e-19
-2.4049739008113e-19 -3.466333028937343e-17 -4.3075370054400195e-18
1.8057229222855998e-19 2.03382860987433e-17 2.51083916232653e-18
9.862310829647e-20 8.31877677795001e-18 1.01859200545092e-18
3.1807090487259e-19 1.9346105677509168e-17 2.3583339067724498e-18
-1.5096894783787e-19 -4.6396561390052394e-18 -5.638772321012299e-19

SCALARS Gamma float
LOOKUP_TABLE default
-4.0926047768632285e-5
0.0005547861804328754
0.0030489800040360195
0.025612617642469627
0.05586362725874041
0.10247774073405272
0.15024511460125606
0.1944396210211129
0.23599132688613383
0.2668137400154628
0.2854836083304764
0.2882311812283398
0.280032894896105
0.25494260138932806
0.242194471547791
0.23311148153277608
0.22270398166822708
0.21661237278100215
0.210450458250657
0.20156177828612346
0.19885782840781466
0.19394203037781713
0.19238105295642433
0.18862439193448183
0.18555323159824674
0.1841751717252226
0.1858252406666127
0.18645262245396943
0.18848224272054084
0.19163485969917832
0.19195805901928775
0.20183942897155235
0.2008207621834691
0.1998290960373792
0.19867190619442723
0.1970386063975871
0.19499271201986934
0.19327654298058455
0.19059562568384714
0.18516830963400324
0.18204879325656503
0.17452855750078985
0.16415838472928107
0.1547772204364269
0.1259963302566546
0.0945723225390869
0.07481479154107487
0.05657297406179914
0.041105970223247836
0.02140805277855479
-4.0926047768632285e-5
0.0005547861804328754
0.0030489800040360195
0.025612617642469627
0.05586362725874041
0.10247774073405272
0.15024511460125606
0.1944396210211129
0.23599132688613383
0.2668137400154628
0.2854836083304764
0.2882311812283398
0.280032894896105
0.25494260138932806
0.242194471547791
0.23311148153277608
0.22270398166822708
0.21661237278100215
0.210450458250657
0.20156177828612346
0.19885782840781466
0.19394203037781713
0.19238105295642433
0.18862439193448183
0.18555323159824674
0.1841751717252226
0.1858252406666127
0.18645262245396943
0.18848224272054084
0.19163485969917832
0.19195805901928775
0.20183942897155235
0.2008207621834691
0.1998290960373792
0.19867190619442723
0.1970386063975871
0.19499271201986934
0.19327654298058455
0.19059562568384714
0.18516830963400324
0.18204879325656503
0.17452855750078985
0.16415838472928107
0.1547772204364269
0.1259963302566546
0.0945723225390869
0.07481479154107487
0.05657297406179914
0.041105970223247836
0.02140805277855479

VECTORS Ftot float
0.0072259813871682595 -0.0015501656780913895 0.01771847477853003
0.010670584606269002 -0.004434085582928844 0.05068183012779655
-0.0008199221013469614 -0.010280961413197131 0.117511926675514
-0.2640552229705902 -0.021024057654267028 0.2403060786045413
-0.7429177396558997 -0.034405027864630344 0.393251267970685
-1.6272632441198616 -0.05523077220899298 0.6312906150706853
-2.7458249782831863 -0.0770525552767104 0.8807147368742066
-3.9963860658420622 -0.0994377059251511 1.136578179591075
-5.368472336221969 -0.12316198194161813 1.407747895304439
-6.635953333634803 -0.14455743192729534 1.652299007681843
-7.689009523298782 -0.16178439239102047 1.8492040667998222
-8.345995005843395 -0.16961036231134832 1.9386553123090062
-8.66018662559275 -0.17179765553015147 1.9636561882014016
-8.375433069750096 -0.16248256209235346 1.8571841830022615
-8.419389883293004 -0.1563683270823726 1.7872981570468065
-8.539924390789718 -0.1515071338711081 1.7317344643882244
-8.5687702968654 -0.1448663727619048 1.655830217579888
-8.721868509354419 -0.14047942365986174 1.6056871598939837
-8.838904310820578 -0.1375352036764091 1.572034571492285
-8.801088358606352 -0.13648630859215902 1.5600456458191976
-9.011863907693936 -0.13488911575706888 1.5417896481765216
-9.10377033252363 -0.12975397985411385 1.4830947762239581
-9.325445466934188 -0.1253564302200107 1.4328305539021704
-9.426462246885126 -0.12271721667899814 1.4026642050902407
-9.543730426076836 -0.11970762626302157 1.36826442922574
-9.733159728886687 -0.11750543105442977 1.343093222810645
-10.075773574457845 -0.11499601413671783 1.3144104561917633
-10.35698473763842 -0.11154685086088609 1.274986339548243
-10.710968102801536 -0.10791144257084562 1.2334334326511884
-11.126295902174167 -0.10391252621656238 1.1877256095673634
-11.371298025228183 -0.09896413884486227 1.1311652830945078
-12.18458301417981 -0.0953501726308084 1.0898574602474598
-12.33881574804856 -0.0888810434140255 1.01591497494631
-12.48159990772852 -0.08467780951565876 0.9678717916472388
-12.602026188017124 -0.08124304189343222 0.9286122180773583
-12.680142917525714 -0.07814511475940086 0.8932027489052365
-12.718904533562979 -0.07650858449427005 0.8744971223797394
-12.76742791709528 -0.0750778611170599 0.8581438793474441
-12.73963956617933 -0.07311477421763901 0.8357056934121978
-12.513328576280845 -0.0715521885393345 0.8178452573816313
-12.428493897316395 -0.06966116970631327 0.7962308132146921
-12.027574831599521 -0.06899235635784777 0.7885862416609466
-11.410773941683505 -0.07911001708445642 0.9042316329476774
-10.844162665210765 -0.08607410539586466 0.9838315265881222
-8.89182125667034 -0.10364414439635394 1.1846579913252708
-6.718687744941376 -0.11088540363007053 1.2674259631045046
-5.347314205714292 -0.11548943599844015 1.3200502938785756
-4.065498420179171 -0.12063124354194113 1.378821423031524
-2.969860080480389 -0.12413326010777148 1.418849655544102
-1.5577639875624896 -0.13025493081663986 1.4888206719267492
0.0072259813871682595 -0.0015501656780913895 0.01771847477853003
0.010670584606269002 -0.004434085582928844 0.05068183012779655
-0.0008199221013469614 -0.010280961413197131 0.117511926675514
-0.2640552229705902 -0.021024057654267028 0.2403060786045413
-0.7429177396558997 -0.034405027864630344 0.393251267970685
-1.6272632441198616 -0.05523077220899298 0.6312906150706853
-2.7458249782831863 -0.0770525552767104 0.8807147368742066
-3.9963860658420622 -0.0994377059251511 1.136578179591075
-5.368472336221969 -0.12316198194161813 1.407747895304439
-6.635953333634803 -0.14455743192729534 1.652299007681843
-7.689009523298782 -0.16178439239102047 1.8492040667998222
-8.345995005843395 -0.16961036231134832 1.9386553123090062
-8.66018662559275 -0.17179765553015147 1.9636561882014016
-8.375433069750096 -0.16248256209235346 1.8571841830022615
-8.419389883293004 -0.1563683270823726 1.7872981570468065
-8.539924390789718 -0.1515071338711081 1.7317344643882244
-8.5687702968654 -0.1448663727619048 1.655830217579888
-8.721868509354419 -0.14047942365986174 1.6056871598939837
-8.838904310820578 -0.1375352036764091 1.572034571492285
-8.801088358606352 -0.13648630859215902 1.5600456458191976
-9.011863907693936 -0.13488911575706888 1.5417896481765216
-9.10377033252363 -0.12975397985411385 1.4830947762239581
-9.325445466934188 -0.1253564302200107 1.4328305539021704
-9.426462246885126 -0.12271721667899814 1.4026642050902407
-9.543730426076836 -0.11970762626302157 1.36826442922574
-9.733159728886687 -0.11750543105442977 1.343093222810645
-10.075773574457845 -0.11499601413671783 1.3144104561917633
-10.35698473763842 -0.11154685086088609 1.274986339548243
-10.710968102801536 -0.10791144257084562 1.2334334326511884
-11.126295902174167 -0.10391252621656238 1.1877256095673634
-11.371298025228183 -0.09896413884486227 1.1311652830945078
-12.18458301417981 -0.0953501726308084 1.0898574602474598
-12.33881574804856 -0.0888810434140255 1.01591497494631
-12.48159990772852 -0.08467780951565876 0.9678717916472388
-12.602026188017124 -0.08124304189343222 0.9286122180773583
-12.680142917525714 -0.07814511475940086 0.8932027489052365
-12.718904533562979 -0.07650858449427005 0.8744971223797394
-12.76742791709528 -0.0750778611170599 0.8581438793474441
-12.73963956617933 -0.07311477421763901 0.8357056934121978
-12.513328576280845 -0.0715521885393345 0.8178452573816313
-12.428493897316395 -0.06966116970631327 0.7962308132146921
-12.027574831599521 -0.06899235635784777 0.7885862416609466
-11.410773941683505 -0.07911001708445642 0.9042316329476774
-10.844162665210765 -0.08607410539586466 0.9838315265881222
-8.89182125667034 -0.10364414439635394 1.1846579913252708
-6.718687744941376 -0.11088540363007053 1.2674259631045046
-5.347314205714292 -0.11548943599844015 1.3200502938785756
-4.065498420179171 -0.12063124354194113 1.378821423031524
-2.969860080480389 -0.12413326010777148 1.418849655544102
-1.5577639875624896 -0.13025493081663986 1.4888206719267492

VECTORS D float
0.007010295303493829 -0.000495760938248185 0.01783257806829203
0.014612715136767944 -0.0015527410426800325 0.049610870311638564
0.0282538982592059 -0.004046164441981727 0.11029276066823017
0.040288806164739815 -0.007420798510979262 0.1678609244109058
0.04890782432085636 -0.011256584944574058 0.21061658743619488
0.05713731785296346 -0.01596547401406878 0.2522677171274138
0.05855082467088834 -0.019307938413171594 0.26476971086146833
0.05770501021872403 -0.021990174868341216 0.2671010964093877
0.05767932608520741 -0.025018237029534082 0.27385401027874123
0.06030647703138013 -0.02942732261548299 0.29503451149182475
0.06572447864057067 -0.03579113082714013 0.3332286215851329
0.06837610597157041 -0.041287968288320036 0.3614194845565998
0.07249977332194436 -0.048239975570207906 0.4014583486665922
0.07206481791431811 -0.05251958625832117 0.4193857627041894
0.06777750905235692 -0.05380005447547132 0.4152268910823547
0.06371932621613667 -0.05480478691522478 0.4111063778373401
0.058891209071036496 -0.05493322732906586 0.40096039486244966
0.05456900637477966 -0.05459901680108545 0.3901386915637959
0.052919399150472876 -0.05652595125927022 0.39633494015961523
0.05608480570815991 -0.06367871544945357 0.43896701776615016
0.05406941247766423 -0.06500836236695742 0.4413011728120679
0.048947539026207694 -0.06211908792148209 0.415831359337424
0.045633988908454826 -0.0627635857227839 0.41718348642413816
0.044551444353444915 -0.06509596537663957 0.42990938867583856
0.04288562592229643 -0.06667010692041295 0.4382768215669615
0.04153674453050158 -0.0689057153115018 0.45174083534916687
0.03925912455859458 -0.07040054399565561 0.46239524747556243
0.036590099388304424 -0.07093474157791478 0.4672685690285458
0.0336379249297409 -0.07099318482421893 0.469971352069848
0.030448377185124317 -0.07052315134220864 0.47007671159419057
0.027509032947046787 -0.07055732746317932 0.47438026113950454
0.024146160492319498 -0.07095194944929341 0.48260306644341516
0.02090975027418736 -0.06927276853168925 0.47729228015548686
0.018800312094590786 -0.07105663962095325 0.4961996793779348
0.016865284758843645 -0.07371063138172851 0.5218750554939631
0.014893813195045296 -0.07647968100559523 0.5490838311640048
0.013165885131827235 -0.0809806609538556 0.5895481867055172
0.011132326415333217 -0.08541934896594927 0.6314682403000395
0.009090825437086033 -0.08775442979732817 0.6574771867425554
0.00713655616804187 -0.09026151826969847 0.6849225944161837
0.005189955563312959 -0.09133391215566357 0.7014075989538748
0.003459558491476202 -0.09377642081705041 0.7282404775956819
0.002137018203632189 -0.11116295038555195 0.8721824949831348
0.00045740015133533245 -0.12298962805223361 0.9740781435325524
-0.0014567642114256534 -0.14896629869302427 1.1898683921441398
-0.003412225422646012 -0.15896002342292007 1.2793632228960463
-0.005198038860007292 -0.1647370580599644 1.3347760740578403
-0.007254895987014204 -0.17058158503512114 1.3938315057756312
-0.008614326473106292 -0.17424890562983567 1.4305767726244314
-0.01002242590560409 -0.1811292233794304 1.4930384494549518
0.007010295303493829 -0.000495760938248185 0.01783257806829203
0.014612715136767944 -0.0015527410426800325 0.049610870311638564
0.0282538982592059 -0.004046164441981727 0.11029276066823017
0.040288806164739815 -0.007420798510979262 0.1678609244109058
0.04890782432085636 -0.011256584944574058 0.21061658743619488
0.05713731785296346 -0.01596547401406878 0.2522677171274138
0.05855082467088834 -0.019307938413171594 0.26476971086146833
0.05770501021872403 -0.021990174868341216 0.2671010964093877
0.05767932608520741 -0.025018237029534082 0.27385401027874123
0.06030647703138013 -0.02942732261548299 0.29503451149182475
0.06572447864057067 -0.03579113082714013 0.3332286215851329
0.06837610597157041 -0.041287968288320036 0.3614194845565998
0.07249977332194436 -0.048239975570207906 0.4014583486665922
0.07206481791431811 -0.05251958625832117 0.4193857627041894
0.06777750905235692 -0.05380005447547132 0.4152268910823547
0.06371932621613667 -0.05480478691522478 0.4111063778373401
0.058891209071036496 -0.05493322732906586 0.40096039486244966
0.05456900637477966 -0.05459901680108545 0.3901386915637959
0.052919399150472876 -0.05652595125927022 0.39633494015961523
0.05608480570815991 -0.06367871544945357 0.43896701776615016
0.05406941247766423 -0.06500836236695742 0.4413011728120679
0.048947539026207694 -0.06211908792148209 0.415831359337424
0.045633988908454826 -0.0627635857227839 0.41718348642413816