# vtk DataFile Version 4.0
[MyVLM domain - lattices] 
ASCII
DATASET UNSTRUCTURED_GRID
POINTS 152 float
0.0018916144324157278 0.009314157889595095 0.003964402281066014
0.0010688609733395774 0.011360409562745939 0.007698766008041781
0.00045780959861706216 0.013386359803769853 0.011359908473294288
-0.00013255382275044122 0.015259633771320233 0.014983299408660545
-0.0007201482309470062 0.01703581028623794 0.01855404651397998
-0.0011946371146526612 0.01857040363269466 0.022110864620126618
-0.0014108622120167862 0.019569944410997128 0.025732388615751514
-0.0013224843579428829 0.020279086995088652 0.029353063558931827
-0.0010167791708201568 0.021054937690086623 0.032877203103599276
-0.0006138083932142036 0.021658643223668856 0.03636880779118214
-0.00020084691410191335 0.02220049398109259 0.039798325402017797
0.0001698744379422134 0.022819048527728276 0.04312862928041084
0.0004739400232210948 0.023443151771776152 0.04637878537574637
0.0007082255455298663 0.023993786058235638 0.049569966404869596
0.0008836440760600275 0.02448230715127536 0.052699129599942086
0.001017516815515788 0.024965937348829414 0.055750942292443366
0.0011275777072549662 0.025497086769720956 0.058711361233359544
0.0012277625198140337 0.026088852309641624 0.06157687712006669
0.00132638558954348 0.026708561248884127 0.06435624458142489
0.0014271324949937316 0.027308086933560488 0.06706235911547785
0.0015306083418583354 0.02785565961283311 0.06970373340130626
0.0016355657532635378 0.0283505581627578 0.07228056066348858
0.0017398364473795213 0.028812235148405373 0.07478762860292339
0.0018410131526058282 0.029263191739620352 0.07721890804932208
0.001936923789896676 0.029719965295414204 0.07956996783069259
0.0020259353317291845 0.03019179277418907 0.08183833291149055
0.0021071205190511294 0.030681117018743456 0.08402334873396086
0.002180316672546981 0.03118441122665132 0.08612596030196544
0.0022461021518325993 0.03169320390393787 0.08814843754547352
0.0023056987632523672 0.0321953515121442 0.09009403431580844
0.0023607022647827588 0.032677589910602475 0.0919663047287504
0.0024126938092907785 0.033128960227242786 0.09376818520522054
0.0024629658139780817 0.03354298825091471 0.0955014105048682
0.0025123806343549317 0.03391851088090778 0.09716629227958948
0.0025613283706516186 0.03425952200173059 0.09876176037125564
0.0026097549007438213 0.03457435460958975 0.10028558196026258
0.0026572361369983943 0.03487445080708319 0.10173469114445949
0.002703078927872171 0.03517210845900912 0.10310579272090505
0.0027464329900004744 0.035475058677027514 0.10439681514447337
0.0027864017842759935 0.03578197138125281 0.10560811480899565
0.0028221433614242725 0.0360820125912191 0.10674259467078859
0.0028529549202113143 0.03635714614049138 0.10780508750608293
0.002878337166053322 0.03658521199652415 0.10880153107770356
0.0028980365508205295 0.03673894341104538 0.10973923148883012
0.0029120651374179955 0.03678471161478915 0.11062719954102992
0.002920699186668212 0.036688258187510495 0.11147461475034155
0.0029244586304951574 0.03642382275478544 0.11228837958828863
0.002924070395798875 0.03598255572446628 0.11307086529594046
0.0029204190990956736 0.03537782384358617 0.11381849026422415
0.0029144889643634465 0.034646379770309765 0.11452140664806472
0.002907300946956263 0.03384538805668734 0.11516429725190457
0.006212993241944028 -0.004783837966727046 0.00774194888566489
0.0072288922610571306 -0.006661478740134533 0.012527716424882557
0.007974780507892725 -0.007101002248565534 0.016849480590261645
0.008270023946844132 -0.006646105560553363 0.020852924572242828
0.008140225139500825 -0.00554930625802866 0.024605710252979075
0.007751519283975376 -0.0041820111474790604 0.02820735578633218
0.007318662739924205 -0.0029972341720829374 0.03177924589253682
0.0069707766105224795 -0.0018566309442535113 0.035284311304661746
0.006702226685381192 -0.0004746095211438805 0.03864602789225629
0.006460614097576536 0.0008578741845877896 0.04194235705715028
0.006208498480286784 0.0022102230010962363 0.045154702367587195
0.005928720355726676 0.003688569543107264 0.048254625675160666
0.00562110152420414 0.005196334330657375 0.05126800537353232
0.005297776270156929 0.006634510800170868 0.05422137019145768
0.004977662142563614 0.007998727669809854 0.05711589141037505
0.004680078492205027 0.009333754698067282 0.05993957300965095
0.0044193472589770496 0.010681926416869093 0.06268107148564384
0.0042022226504668725 0.012048147104947953 0.06533907274082786
0.004028605706719037 0.013393343863839797 0.0679240463267924
0.003894567528214928 0.014664914428209424 0.07045008697805409
0.003794542923454683 0.015828464837111075 0.07292641052867284
0.0037223892098821663 0.016882269381415876 0.0753534793810161
0.0036720478837599236 0.017846156584055424 0.07772598049837724
0.0036379885391020494 0.018744159686941736 0.08003747419299444
0.003615480687410345 0.01959529287230309 0.0822828656300949
0.003600729157216099 0.020412015855936036 0.08445881623889301
0.0035909263662617956 0.02120055769315055 0.08656365694904886
0.003584242976167935 0.021961574687004375 0.08859721190468813
0.00357976601221264 0.02269102340424431 0.09056056454048565
0.003577378730160166 0.023381295371930868 0.0924557535406212
0.0035774796054096774 0.024023645207279985 0.0942851222233493
0.003580588564800478 0.024611508212482876 0.09605042959414632
0.0035870678637920984 0.025142586491546028 0.09775229137238804
0.0035969747054953923 0.025619597449027122 0.09938997943171772
0.0036100119296844893 0.026050057187284644 0.10096147983857817
0.0036255480079795204 0.02644541547131599 0.1024637246376848
0.0036426825552804717 0.02681979344195447 0.10389293008075515
0.0036603380175139954 0.02718771218778181 0.10524520525383048
0.003677362157174432 0.027558665446995236 0.10651800631742775
0.0036926294639041822 0.027932632610040645 0.10771133879386027
0.0037051326977571345 0.0282996544502124 0.10882787124988114
0.003714058455611533 0.028642162935132016 0.10987231102557868
0.003718842962038476 0.028938095873756595 0.11085056966722617
0.003719206248598144 0.029159957140605305 0.11177001473944113
0.003715164522496519 0.029273609678014633 0.11263979323925653
0.0037070218583473346 0.02924405989032842 0.11346928167236865
0.003695343396461056 0.029044639584048168 0.11426562575968902
0.003680913018392471 0.028665473710619255 0.11503147151250309
0.0036646790161518838 0.028118840297650077 0.11576352904322854
0.003647691596346039 0.027440392447487073 0.11645224513188399
0.0036310361855396924 0.02668623357891277 0.11708258691271396
0.005410766489344848 -0.0017076728335304629 0.009059020527593768
0.005892211109850776 -0.0020675841999480515 0.013398783190846088
0.006132458642509649 -0.0015744162315333252 0.01743130292118353
0.006047255650667177 -0.0005363489247734883 0.02123915629978828
0.005720055990603616 0.0008015327128011819 0.024888013656505045
0.005325630843128663 0.0020753265106257233 0.028475382284060644
0.005016871435172548 0.0031609295071345542 0.03203451547078488
0.004834968294868498 0.004292537911122887 0.035502660531660644
0.004732241848104854 0.0054829218630109 0.038876395717875135
0.00464908530328423 0.0066329285952266915 0.04218228893342654
0.004547585503985086 0.007839490017678922 0.04539436735133402
0.004411660012619469 0.009114613990099794 0.048509413475279525
0.004242349868979272 0.010366184152812066 0.05155210980944824
0.00405227310746894 0.011546976077431645 0.05453511010128874
0.003859297849485217 0.012680711450467022 0.057452058144057926
0.0036804214720396232 0.013813758432919935 0.060290529626460906
0.003527506244425096 0.014972019955601717 0.06304358387910516
0.003405829147614405 0.016140235808111126 0.06571530986304405
0.003315379723667389 0.017273927882324038 0.06831762545143029
0.003253134023982613 0.01833048554279439 0.07086194812962061
0.003214621311891553 0.01929230255389647 0.07335299547423271
0.0031948391851961662 0.020168508900947138 0.075788321113074
0.0031888698585714084 0.02098079696262715 0.07816211259079507
0.0031922930777549615 0.021750189339096133 0.08046873691866034
0.003201436081938149 0.022491710531790082 0.08270416829364337
0.0032135028026517493 0.023213828805024036 0.08486613765115963
0.003226618152360912 0.023918990673232443 0.08695398944964217
0.0032398057236901635 0.024604426175541906 0.08896846589787004
0.003252904392775423 0.025263188968075955 0.09091142826307533
0.003266372004343082 0.02588597039504741 0.0927853707920588
0.0032809500730880004 0.026464001299641732 0.09459264317330723
0.0032973286136308236 0.026991779073780527 0.09633471982621149
0.0033159342695244357 0.027468506369192746 0.09801181439959687
0.0033368336138182735 0.02789837459894671 0.0996228038077166
0.0033597203855484335 0.028290036823390277 0.1011653694700384
0.0033839603409402744 0.02865555401956054 0.10263627965750527
0.003408672097906746 0.02900863451941265 0.10403186123364021
0.0034328265552422406 0.029360787505045977 0.10534903032239415
0.0034553512046890385 0.0297163655286735 0.10658662066091666
0.003475228953835527 0.03007010564415388 0.10774604245137608
0.0034915839677176984 0.030408076360967966 0.10883102862540639
0.0035037495424018335 0.030710391820460172 0.10984690758277513
0.0035113151685979642 0.03095228930633191 0.11080031447331694
0.003514151750190315 0.031103044435211794 0.11169948187074413
0.003512415433327221 0.031128247313416103 0.11255362987828088
0.0035065316976985676 0.030997272420678217 0.1133709645793504
0.0034971622838568268 0.030692089795406753 0.1141563170876007
0.003485158199815951 0.030214165199107555 0.11490929465341994
0.0034715024876191118 0.029587737731163424 0.11562340242970331
0.003457246657122113 0.028858955738274576 0.11628627500422038

CELLS 100 350
4 0 51 52 1
4 1 52 53 2
4 2 53 54 3
4 3 54 55 4
4 4 55 56 5
4 5 56 57 6
4 6 57 58 7
4 7 58 59 8
4 8 59 60 9
4 9 60 61 10
4 10 61 62 11
4 11 62 63 12
4 12 63 64 13
4 13 64 65 14
4 14 65 66 15
4 15 66 67 16
4 16 67 68 17
4 17 68 69 18
4 18 69 70 19
4 19 70 71 20
4 20 71 72 21
4 21 72 73 22
4 22 73 74 23
4 23 74 75 24
4 24 75 76 25
4 25 76 77 26
4 26 77 78 27
4 27 78 79 28
4 28 79 80 29
4 29 80 81 30
4 30 81 82 31
4 31 82 83 32
4 32 83 84 33
4 33 84 85 34
4 34 85 86 35
4 35 86 87 36
4 36 87 88 37
4 37 88 89 38
4 38 89 90 39
4 39 90 91 40
4 40 91 92 41
4 41 92 93 42
4 42 93 94 43
4 43 94 95 44
4 44 95 96 45
4 45 96 97 46
4 46 97 98 47
4 47 98 99 48
4 48 99 100 49
4 49 100 101 50
1 102
1 103
1 104
1 105
1 106
1 107
1 108
1 109
1 110
1 111
1 112
1 113
1 114
1 115
1 116
1 117
1 118
1 119
1 120
1 121
1 122
1 123
1 124
1 125
1 126
1 127
1 128
1 129
1 130
1 131
1 132
1 133
1 134
1 135
1 136
1 137
1 138
1 139
1 140
1 141
1 142
1 143
1 144
1 145
1 146
1 147
1 148
1 149
1 150
1 151

CELL_TYPES 100
9
9
9
9
9
9
9
9
9
9
9
9
9
9
9
9
9
9
9
9
9
9
9
9
9
9
9
9
9
9
9
9
9
9
9
9
9
9
9
9
9
9
9
9
9
9
9
9
9
9
1
1
1
1
1
1
1
1
1
1
1
1
1
1
1
1
1
1
1
1
1
1
1
1
1
1
1
1
1
1
1
1
1
1
1
1
1
1
1
1
1
1
1
1
1
1
1
1
1
1

CELL_DATA 100

VECTORS S float
-1.108579527e-23 6.190678988e-23 3.2613006047999996e-22
1.14855310802915e-18 1.7813203160105398e-18 6.4229209077752196e-18
-9.817582615531299e-19 5.2080555070324e-19 4.19875982654819e-18
3.741837557963e-20 -4.1457688109918e-19 -2.1899877750825097e-18
-1.542952117309e-20 6.3872955022957e-19 3.45213835557933e-18
-1.69736277471e-20 5.3839998886508496e-18 3.028810867759752e-17
3.592383496366e-20 3.20027890599567e-18 1.87803544913791e-17
9.651702931979999e-21 4.0936670279116996e-19 2.5091535763288897e-18
6.344085001028e-20 1.80858486873256e-18 1.160599085040204e-17
3.1141022094209996e-20 6.8090446810626e-19 4.56446140757049e-18
-3.665233090287e-19 -6.60778544250761e-18 -4.612650955017974e-17
-2.0699938568343e-19 -3.2449563633702296e-18 -2.3501276942682298e-17
4.5005408242445e-19 6.31494540650939e-18 4.724006217797973e-17
-8.2050161067535e-19 -1.058783764832801e-17 -8.145961481149698e-17
4.646998574404499e-19 5.7435794547048494e-18 4.5290514996580095e-17
3.7776072651499997e-19 4.55109658223095e-18 3.666923705614021e-17
-4.0536643864541996e-19 -4.82644275291682e-18 -3.963575529624902e-17
3.643589475625e-20 4.3454665509563e-19 3.6296985140435e-18
1.133281617756e-19 1.35070301638154e-18 1.1452770176613679e-17
4.878154781406e-20 5.6300682095632e-19 4.8357252275190296e-18
-1.9962593601414e-19 -2.3012384313429e-18 -2.012145716941066e-17
2.472090040013e-19 2.950464244697e-18 2.603358949257626e-17
4.7712763249016e-19 5.8049034391553e-18 5.1577942201323326e-17
-5.1067527961493e-19 -6.33991100713896e-18 -5.660418152635244e-17
1.747729186232e-20 2.2392323052306e-19 2.00439549415708e-18
-1.0023077507386999e-19 -1.3350990152004299e-18 -1.195243243070332e-17
1.4499456856560998e-19 2.04236536354212e-18 1.8241673219318878e-17
5.573703292593e-20 8.4277636167384e-19 7.49133766228681e-18
-7.551413152441e-20 -1.2359018215259199e-18 -1.095334223733823e-17
-1.853657666555e-19 -3.35802640374857e-18 -2.945735008406443e-17
-9.678852742695999e-20 -1.9315069975258e-18 -1.674764990010679e-17
-7.352345876892999e-20 -1.64671326266417e-18 -1.409826467261386e-17
-5.13466080198e-20 -1.29052019905506e-18 -1.090062457535412e-17
1.0048074005594e-19 2.78132562940069e-18 2.31797506081555e-17
-1.7339557981564998e-19 -5.2355666998285594e-18 -4.3008535647538157e-17
7.526764780345e-20 2.4667551676811498e-18 1.99788191543257e-17
5.057888726546e-20 1.7629666672954e-18 1.4084194407184408e-17
6.141183167998e-20 2.25884358237184e-18 1.781059036607006e-17
-1.276740991227e-20 -4.985622121607099e-19 -3.88264332428306e-18
-5.2294824266339996e-20 -2.1207223715836e-18 -1.6324890082159158e-17
1.632403120488e-20 6.973193611850499e-19 5.306086471115089e-18
1.735178419627e-20 7.4378672194374e-19 5.604489986337609e-18
-7.678729900697e-20 -2.7216647739491798e-18 -2.0327309438692558e-17
1.23367209632e-19 3.64520987264183e-18 2.7011330620887278e-17
-1.1553794067788e-19 -2.59214503686686e-18 -1.9074683495026118e-17
1.0755188373175999e-19 2.01658484085072e-18 1.474954837344622e-17
1.5990812711011998e-19 2.6470857819701e-18 1.9259845501602418e-17
9.237905434070999e-20 1.25652155411824e-18 9.10124785780755e-18
7.0030157723042e-19 7.09471917327938e-18 5.119306142557439e-17
2.8424727842980996e-19 1.4832980871191e-18 1.0669637541292089e-17
-1.108579527e-23 6.190678988e-23 3.2613006047999996e-22
1.14855310802915e-18 1.7813203160105398e-18 6.4229209077752196e-18
-9.817582615531299e-19 5.2080555070324e-19 4.19875982654819e-18
3.741837557963e-20 -4.1457688109918e-19 -2.1899877750825097e-18
-1.542952117309e-20 6.3872955022957e-19 3.45213835557933e-18
-1.69736277471e-20 5.3839998886508496e-18 3.028810867759752e-17
3.592383496366e-20 3.20027890599567e-18 1.87803544913791e-17
9.651702931979999e-21 4.0936670279116996e-19 2.5091535763288897e-18
6.344085001028e-20 1.80858486873256e-18 1.160599085040204e-17
3.1141022094209996e-20 6.8090446810626e-19 4.56446140757049e-18
-3.665233090287e-19 -6.60778544250761e-18 -4.612650955017974e-17
-2.0699938568343e-19 -3.2449563633702296e-18 -2.3501276942682298e-17
4.5005408242445e-19 6.31494540650939e-18 4.724006217797973e-17
-8.2050161067535e-19 -1.058783764832801e-17 -8.145961481149698e-17
4.646998574404499e-19 5.7435794547048494e-18 4.5290514996580095e-17
3.7776072651499997e-19 4.55109658223095e-18 3.666923705614021e-17
-4.0536643864541996e-19 -4.82644275291682e-18 -3.963575529624902e-17
3.643589475625e-20 4.3454665509563e-19 3.6296985140435e-18
1.133281617756e-19 1.35070301638154e-18 1.1452770176613679e-17
4.878154781406e-20 5.6300682095632e-19 4.8357252275190296e-18
-1.9962593601414e-19 -2.3012384313429e-18 -2.012145716941066e-17
2.472090040013e-19 2.950464244697e-18 2.603358949257626e-17
4.7712763249016e-19 5.8049034391553e-18 5.1577942201323326e-17
-5.1067527961493e-19 -6.33991100713896e-18 -5.660418152635244e-17
1.747729186232e-20 2.2392323052306e-19 2.00439549415708e-18
-1.0023077507386999e-19 -1.3350990152004299e-18 -1.195243243070332e-17
1.4499456856560998e-19 2.04236536354212e-18 1.8241673219318878e-17
5.573703292593e-20 8.4277636167384e-19 7.49133766228681e-18
-7.551413152441e-20 -1.2359018215259199e-18 -1.095334223733823e-17
-1.853657666555e-19 -3.35802640374857e-18 -2.945735008406443e-17
-9.678852742695999e-20 -1.9315069975258e-18 -1.674764990010679e-17
-7.352345876892999e-20 -1.64671326266417e-18 -1.409826467261386e-17
-5.13466080198e-20 -1.29052019905506e-18 -1.090062457535412e-17
1.0048074005594e-19 2.78132562940069e-18 2.31797506081555e-17
-1.7339557981564998e-19 -5.2355666998285594e-18 -4.3008535647538157e-17
7.526764780345e-20 2.4667551676811498e-18 1.99788191543257e-17
5.057888726546e-20 1.7629666672954e-18 1.4084194407184408e-17
6.141183167998e-20 2.25884358237184e-18 1.781059036607006e-17
-1.276740991227e-20 -4.985622121607099e-19 -3.88264332428306e-18
-5.2294824266339996e-20 -2.1207223715836e-18 -1.6324890082159158e-17
1.632403120488e-20 6.973193611850499e-19 5.306086471115089e-18
1.735178419627e-20 7.4378672194374e-19 5.604489986337609e-18
-7.678729900697e-20 -2.7216647739491798e-18 -2.0327309438692558e-17
1.23367209632e-19 3.64520987264183e-18 2.7011330620887278e-17
-1.1553794067788e-19 -2.59214503686686e-18 -1.9074683495026118e-17
1.0755188373175999e-19 2.01658484085072e-18 1.474954837344622e-17
1.5990812711011998e-19 2.6470857819701e-18 1.9259845501602418e-17
9.237905434070999e-20 1.25652155411824e-18 9.10124785780755e-18
7.0030157723042e-19 7.09471917327938e-18 5.119306142557439e-17
2.8424727842980996e-19 1.4832980871191e-18 1.0669637541292089e-17

SCALARS Gamma float
LOOKUP_TABLE default
0.00011126563771226559
-0.0010600932955825504
0.0008696745762756801
0.014937782155770862
0.05338002637499057
0.09330975528876917
0.14109897491404955
0.18448967536483687
0.2307810654061301
0.2635465859393026
0.2840657856208517
0.2895484603401751
0.28311500736607687
0.2597153352363461
0.24854878310452105
0.24060359584417584
0.23041424519861234
0.22537656084447247
0.22174164528103996
0.21392153017433455
0.21407420927183107
0.21196923657027594
0.20444412003106294
0.20019177415073938
0.19635786678407313
0.19442831276853922
0.1943237381586768
0.194758717853794
0.1971724824962231
0.19940982956205278
0.19811491910503584
0.20389504653913848
0.20179348624753377
0.20024029215390746
0.1979458956617745
0.19515819064913423
0.1918896237691527
0.18816720138035914
0.18413283601787606
0.17717548271494502
0.1719246224586335
0.16117828403993634
0.14534764312609358
0.12583415422483635
0.10989690216162538
0.09425394072297788
0.08367636754272408
0.06952120428291754
0.051798977381639785
0.027381517597891723
0.00011126563771226559
-0.0010600932955825504
0.0008696745762756801
0.014937782155770862
0.05338002637499057
0.09330975528876917
0.14109897491404955
0.18448967536483687
0.2307810654061301
0.2635465859393026
0.2840657856208517
0.2895484603401751
0.28311500736607687
0.2597153352363461
0.24854878310452105
0.24060359584417584
0.23041424519861234
0.22537656084447247
0.22174164528103996
0.21392153017433455
0.21407420927183107
0.21196923657027594
0.20444412003106294
0.20019177415073938
0.19635786678407313
0.19442831276853922
0.1943237381586768
0.194758717853794
0.1971724824962231
0.19940982956205278
0.19811491910503584
0.20389504653913848
0.20179348624753377
0.20024029215390746
0.1979458956617745
0.19515819064913423
0.1918896237691527
0.18816720138035914
0.18413283601787606
0.17717548271494502
0.1719246224586335
0.16117828403993634
0.14534764312609358
0.12583415422483635
0.10989690216162538
0.09425394072297788
0.08367636754272408
0.06952120428291754
0.051798977381639785
0.027381517597891723

VECTORS Ftot float
-0.0002896272351708608 -0.0007295064383704608 0.00012863166768525147
0.029830401785421626 -0.05280908843765803 0.009311667118178713
0.019816857004814236 -0.08861509234541956 0.01562523167846991
-0.14003313011417481 -0.18435146434065242 0.032506137096372054
-0.7176855807187422 -0.36881798112666037 0.06503256104305678
-1.495386350334734 -0.5849881943946724 0.10314920206771097
-2.603233089676673 -0.8409577460583529 0.148283540265868
-3.8216803510039843 -1.1155596069102116 0.19670325728680307
-5.29062297510676 -1.4110625193855402 0.24880839363413648
-6.605043845534851 -1.6596663830882799 0.2926439623133001
-7.709836766119928 -1.8523229834619312 0.32661451897074395
-8.448086005600196 -1.9453174073693702 0.343011944961066
-8.820741450449496 -1.9703717638125584 0.3474297039862871
-8.593826821349674 -1.8675389727163803 0.32929750841447347
-8.700108059162677 -1.8029836498214524 0.3179146632397506
-8.872711334401018 -1.7505604868262488 0.30867104518961835
-8.919316510749125 -1.672019208439645 0.2948220987107253
-9.128725762149262 -1.6188151340728574 0.2854407849162408
-9.367381017093665 -1.58747038722102 0.2799138603427851
-9.392204037888135 -1.5817271087758127 0.2789011653951737
-9.756270518536988 -1.5621861848093719 0.2754555732719174
-10.003857453250903 -1.5079902290237148 0.2658993640216229
-9.966673279457735 -1.445543676390241 0.25488835194011
-10.060512522739755 -1.4110818456072367 0.2488118013684567
-10.154544799396815 -1.370394046450875 0.24163744459154296
-10.329332713293226 -1.3403249867581681 0.23633545808318518
-10.589800760608984 -1.3077415833828612 0.23059012494481118
-10.87111280514292 -1.267228609069796 0.22344659450466867
-11.258161428298692 -1.222414764529298 0.21554470460290406
-11.630654170309654 -1.1741877189376797 0.20704097526524437
-11.787328949140951 -1.1168048754098285 0.19692283172151193
-12.360571558148765 -1.0829379462800206 0.1909511783621852
-12.449502454069565 -1.0121695091024587 0.1784727935052088
-12.5577415575583 -0.9662462763127733 0.17037528852303147
-12.605192820391013 -0.9308714143752391 0.16413774592460714
-12.60697382988845 -0.8985346744135574 0.15843590620120895
-12.562790725321472 -0.8819570702547542 0.15551282731250707
-12.474167653294806 -0.8689011077052564 0.1532107088559113
-12.350293651223012 -0.8475092176461057 0.14943874147013375
-12.01350212719523 -0.8290408117126497 0.14618226321338904
-11.774888432180767 -0.8066481625575564 0.14223383499780745
-11.14199533778087 -0.7909368452162058 0.1394635058480545
-10.132846335334994 -0.9020222955955435 0.15905086791408346
-8.840651232973295 -0.9758682636665644 0.17207190450154053
-7.7751340795165085 -1.1647830455072625 0.20538267759470977
-6.710964546196322 -1.2355839898761187 0.21786679434657835
-5.991903711857384 -1.2793390450740667 0.22558199112036492
-5.00330395698628 -1.3271174028569512 0.23400660469142984
-3.7442742795009236 -1.3572064377825872 0.23931211337229893
-1.9872930662440766 -1.4191359502794534 0.25023195732761866
-0.0002896272351708608 -0.0007295064383704608 0.00012863166768525147
0.029830401785421626 -0.05280908843765803 0.009311667118178713
0.019816857004814236 -0.08861509234541956 0.01562523167846991
-0.14003313011417481 -0.18435146434065242 0.032506137096372054
-0.7176855807187422 -0.36881798112666037 0.06503256104305678
-1.495386350334734 -0.5849881943946724 0.10314920206771097
-2.603233089676673 -0.8409577460583529 0.148283540265868
-3.8216803510039843 -1.1155596069102116 0.19670325728680307
-5.29062297510676 -1.4110625193855402 0.24880839363413648
-6.605043845534851 -1.6596663830882799 0.2926439623133001
-7.709836766119928 -1.8523229834619312 0.32661451897074395
-8.448086005600196 -1.9453174073693702 0.343011944961066
-8.820741450449496 -1.9703717638125584 0.3474297039862871
-8.593826821349674 -1.8675389727163803 0.32929750841447347
-8.700108059162677 -1.8029836498214524 0.3179146632397506
-8.872711334401018 -1.7505604868262488 0.30867104518961835
-8.919316510749125 -1.672019208439645 0.2948220987107253
-9.128725762149262 -1.6188151340728574 0.2854407849162408
-9.367381017093665 -1.58747038722102 0.2799138603427851
-9.392204037888135 -1.5817271087758127 0.2789011653951737
-9.756270518536988 -1.5621861848093719 0.2754555732719174
-10.003857453250903 -1.5079902290237148 0.2658993640216229
-9.966673279457735 -1.445543676390241 0.25488835194011
-10.060512522739755 -1.4110818456072367 0.2488118013684567
-10.154544799396815 -1.370394046450875 0.24163744459154296
-10.329332713293226 -1.3403249867581681 0.23633545808318518
-10.589800760608984 -1.3077415833828612 0.23059012494481118
-10.87111280514292 -1.267228609069796 0.22344659450466867
-11.258161428298692 -1.222414764529298 0.21554470460290406
-11.630654170309654 -1.1741877189376797 0.20704097526524437
-11.787328949140951 -1.1168048754098285 0.19692283172151193
-12.360571558148765 -1.0829379462800206 0.1909511783621852
-12.449502454069565 -1.0121695091024587 0.1784727935052088
-12.5577415575583 -0.9662462763127733 0.17037528852303147
-12.605192820391013 -0.9308714143752391 0.16413774592460714
-12.60697382988845 -0.8985346744135574 0.15843590620120895
-12.562790725321472 -0.8819570702547542 0.15551282731250707
-12.474167653294806 -0.8689011077052564 0.1532107088559113
-12.350293651223012 -0.8475092176461057 0.14943874147013375
-12.01350212719523 -0.8290408117126497 0.14618226321338904
-11.774888432180767 -0.8066481625575564 0.14223383499780745
-11.14199533778087 -0.7909368452162058 0.1394635058480545
-10.132846335334994 -0.9020222955955435 0.15905086791408346
-8.840651232973295 -0.9758682636665644 0.17207190450154053
-7.7751340795165085 -1.1647830455072625 0.20538267759470977
-6.710964546196322 -1.2355839898761187 0.21786679434657835
-5.991903711857384 -1.2793390450740667 0.22558199112036492
-5.00330395698628 -1.3271174028569512 0.23400660469142984
-3.7442742795009236 -1.3572064377825872 0.23931211337229893
-1.9872930662440766 -1.4191359502794534 0.25023195732761866

VECTORS D float
0.00024483034691462395 -0.00043943951139405305 9.173772130171587e-5
0.022129189243800848 -0.05544820879746329 0.011420734084454336
0.02818607272061452 -0.08554057646305395 0.01720077350694463
0.0390175222794157 -0.13318488625677263 0.02587929836940949
0.04561051786753925 -0.16864748350274492 0.03140774458270951
0.051812265387241076 -0.204087163619891 0.03630747366947198
0.05313175581843151 -0.220922322133089 0.03754478390077374
0.057579056046614334 -0.2510110040195517 0.04073079149074895
0.06008601842320027 -0.275353576446655 0.04258045781702413
0.0632419025094689 -0.302583292486449 0.044706457153203046
0.06768317762876211 -0.339009508423267 0.048026496129972646
0.06969141611200405 -0.36676573513354477 0.05002761035634921
0.07315921638728105 -0.4058255747148587 0.05355286653426144
0.07232495929592568 -0.4237789010059819 0.05435281602165117
0.06795746735314818 -0.42106600776409825 0.05270079719909734
0.06386392994170759 -0.4185616252220647 0.05129065255840527
0.05860945273363571 -0.40619678812383414 0.04886313442741589
0.053712058552239275 -0.3934085470096719 0.046559602849292704
0.051345862847635246 -0.3972173215729005 0.046338457331475444
0.05525694433409614 -0.4514139292332123 0.051999150102642826
0.0523491745528529 -0.4522825487721535 0.051207013558486454
0.047201690965951865 -0.43057558778560046 0.04835019749193156
0.04463086565176912 -0.43033428705547894 0.04801964285397246
0.04348411590302391 -0.4442546953153238 0.04936612268572925
0.04171084840868026 -0.45320552315029183 0.05026665269251822
0.040286464345849475 -0.4678328877243116 0.05191958103344954
0.03814789751273931 -0.4763081219709681 0.05302495890132346
0.035462727338483394 -0.4793381735938333 0.053661750794553174
0.03236199651076875 -0.4811270886532175 0.05406405135159693
0.029275250791388298 -0.4792060557509056 0.054443456528303215
0.026574525757034565 -0.4827998560360464 0.05552774249938486
0.02407123485115523 -0.48938287459225777 0.05703563440901194
0.021050855107691464 -0.48295623518995423 0.05707781994191947
0.0190592333380448 -0.5012779017993492 0.06006544304088244
0.01738998079857493 -0.5248167892153351 0.06381751710442879
0.015693733225074405 -0.5487002753707324 0.06768808501381926
0.014291162640392908 -0.5850133663863913 0.07317679690871526
0.01280160733531351 -0.6208855247896021 0.07870020499567218
0.011054061714037756 -0.6438571208132201 0.08264001401421811
0.009395771654164529 -0.667542514412756 0.08668854656592129
0.00768194147211956 -0.68059638374918 0.08941950680061488
0.006252510008253072 -0.6971877958887064 0.09250628234553937
0.005825509361746865 -0.8378028954207352 0.11215312630163067
0.00488444570254243 -0.9358817866198571 0.1262760060083045
0.004270892649874378 -1.1425160379346744 0.15523580393371464
0.0030401532541682224 -1.2258078561093653 0.16757249128157886
0.0018065264239728496 -1.277734126789972 0.1755976163788696
0.000679863676210994 -1.331490980105831 0.18381922309898693
-0.00034538680970981026 -1.365100092783562 0.189190554480224
-0.0012759877206765307 -1.4280939731512323 0.19856829685536612
0.00024483034691462395 -0.00043943951139405305 9.173772130171587e-5
0.022129189243800848 -0.05544820879746329 0.011420734084454336
0.02818607272061452 -0.08554057646305395 0.01720077350694463
0.0390175222794157 -0.13318488625677263 0.02587929836940949
0.04561051786753925 -0.16864748350274492 0.03140774458270951
0.051812265387241076 -0.204087163619891 0.03630747366947198
0.05313175581843151 -0.220922322133089 0.03754478390077374
0.057579056046614334 -0.2510110040195517 0.04073079149074895
0.06008601842320027 -0.275353576446655 0.04258045781702413
0.0632419025094689 -0.302583292486449 0.044706457153203046
0.06768317762876211 -0.339009508423267 0.048026496129972646
0.06969141611200405 -0.36676573513354477 0.05002761035634921
0.07315921638728105 -0.4058255747148587 0.05355286653426144
0.07232495929592568 -0.4237789010059819 0.05435281602165117
0.06795746735314818 -0.42106600776409825 0.05270079719909734
0.06386392994170759 -0.4185616252220647 0.05129065255840527
0.05860945273363571 -0.40619678812383414 0.04886313442741589
0.053712058552239275 -0.3934085470096719 0.046559602849292704
0.051345862847635246 -0.3972173215729005 0.046338457331475444
0.05525694433409614 -0.4514139292332123 0.051999150102642826
0.0523491745528529 -0.4522825487721535 0.051207013558486454
0.047201690965951865 -0.43057558778560046 0.04835019749193156
0.04463086565176912 -0.43033428705547894 0.04801964285397246
0.04348411590302391 -0.4442546953153238 0.04936612268572925
0.04171084840868026 -0.45320552315029183 0.05026665269251822
0.040286464345849475 -0.4678328877243116 0.05191958103344954
0.03814789751273931 -0.4763081219709681 0.05302495890132346