# vtk DataFile Version 4.0
[MyVLM domain - lattices] 
ASCII
DATASET UNSTRUCTURED_GRID
POINTS 152 float
0.0018916144324157278 0.009861066134098788 0.0022867875584229322
0.0010688609733395774 0.012524696102366747 0.005609090035225725
0.00045780959861706216 0.015155618324214136 0.008862808952490982
-0.00013255382275044122 0.017629628283874894 0.012105861827097848
-0.0007201482309470062 0.019998874414232218 0.015313931445432107
-0.0011946371146526612 0.02212778882196883 0.018550234154347547
-0.0014108622120167862 0.023741015372110257 0.021943170628302727
-0.0013224843579428829 0.025068108092722252 0.025385698066050254
-0.0010167791708201568 0.026444132282111614 0.02872157295300769
-0.0006138083932142036 0.027644976963251813 0.03205529995403909
-0.00020084691410191335 0.028774125273536486 0.03533862408968791
0.0001698744379422134 0.029961583786284298 0.03851092229920515
0.0004739400232210948 0.031140589182790772 0.04160332682938656
0.0007082255455298663 0.032237000867482934 0.044650410007728
0.0008836440760600275 0.033261473713865196 0.04764720338511767
0.001017516815515788 0.034267698194640886 0.05056867068296406
0.0011275777072549662 0.035304849616563556 0.05339188107913586
0.0012277625198140337 0.0363852165200452 0.05611110433313143
0.00132638558954348 0.03747814278275379 0.0587406356295635
0.0014271324949937316 0.0385384721825493 0.06130153166062935
0.0015306083418583354 0.03953639583370502 0.06380769253802437
0.0016355657532635378 0.040471237120865755 0.06625943377267034
0.0017398364473795213 0.04136124797468882 0.06864824434952564
0.0018410131526058282 0.04222754076725547 0.07096427940780695
0.001936923789896676 0.04308563215299319 0.07320030341272579
0.0020259353317291845 0.043944188974738736 0.07535227494909537
0.0021071205190511294 0.0448055033002581 0.07741912520816338
0.002180316672546981 0.045666266005377286 0.07940239725987396
0.0022461021518325993 0.046518528466352925 0.0813057976083504
0.0023056987632523672 0.047350896657714366 0.08313463937492692
0.0023607022647827588 0.04815092511662334 0.08489472597423425
0.0024126938092907785 0.04890833136504293 0.08659085220452585
0.0024629658139780817 0.049617040787489394 0.08822585070552212
0.0025123806343549317 0.05027596207114933 0.08980023036474538
0.0025613283706516186 0.05088884259344256 0.09131224375140679
0.0026097549007438213 0.05146350102858389 0.09275824495784336
0.0026572361369983943 0.052010673259601126 0.09413322775958217
0.002703078927872171 0.052541898113107194 0.09543181151340747
0.0027464329900004744 0.053064429527768214 0.0966506136521675
0.0027864017842759935 0.05357701951774009 0.09779021612121859
0.0028221433614242725 0.05406950278813822 0.09885535907541286
0.0028529549202113143 0.05452495638520835 0.09985393381768451
0.002878337166053322 0.054922588018786626 0.10079563595216753
0.0028980365508205295 0.05523681387527833 0.10169239540706596
0.0029120651374179955 0.05543608079125757 0.10255892566412428
0.002920699186668212 0.05548824481509316 0.10341021569415151
0.0029244586304951574 0.05536913553193331 0.10425753634669378
0.002924070395798875 0.05507044955651049 0.10510475955389
0.0029204190990956736 0.054604728625046846 0.10594603700809319
0.0029144889643634465 0.05400645697989555 0.10676528844300841
0.002907300946956263 0.05332927091201763 0.10753750284540545
0.006212993241944028 -0.0033667854032007755 0.008455036031203067
0.0072288922610571306 -0.004384860782301643 0.013494145906554149
0.007974780507892725 -0.004067240469411328 0.01782657521959066
0.008270023946844132 -0.002924063932374722 0.021690205910895793
0.008140225139500825 -0.0011922630811156344 0.02519552114452831
0.007751519283975376 0.0007796789278782777 0.028505021285096428
0.007318662739924205 0.0025667086866076826 0.03181691199187513
0.0069707766105224795 0.004298631809903711 0.03507066391259712
0.006702226685381192 0.006243413181479504 0.038141322969870356
0.006460614097576536 0.008128055018120663 0.04115619012066706
0.006208498480286784 0.010017676526589324 0.04408489978018106
0.005928720355726676 0.01201185969606793 0.04688101610424227
0.00562110152420414 0.014019986041806827 0.04958679518625987
0.005297776270156929 0.015949159797801784 0.052245555033331795
0.004977662142563614 0.017795279482695547 0.054859208197624715
0.004680078492205027 0.019600351614630196 0.05740816671803655
0.0044193472589770496 0.02140409779013083 0.059873908109913505
0.0042022226504668725 0.023211119590275667 0.06225428662075919
0.004028605706719037 0.024984755740279124 0.06456639768376385
0.003894567528214928 0.0266756506463766 0.0668332561902727
0.003794542923454683 0.028251533181962107 0.0690699104137594
0.0037223892098821663 0.029710784150634533 0.07127711539790585
0.0036720478837599236 0.031072008236365713 0.07344619563609842
0.0036379885391020494 0.032357755322076034 0.07556663594524085
0.003615480687410345 0.03358586601306728 0.07763011711445478
0.003600729157216099 0.03476803099732329 0.07963118768640426
0.0035909263662617956 0.03591009486578435 0.08156712228357504
0.003584242976167935 0.03701267341373794 0.08343763375590872
0.00357976601221264 0.03807197277322444 0.0852444912130889
0.003577378730160166 0.039080854074897094 0.08699102356456254
0.0035774796054096774 0.04003111171093169 0.08868105714809787
0.003580588564800478 0.04091658616412544 0.09031746419373712
0.0035870678637920984 0.04173512136723588 0.09190125009214692
0.0035969747054953923 0.04248926700352452 0.09343122590649658
0.0036100119296844893 0.04318607527297428 0.0949041031419272
0.0036255480079795204 0.04383628924808043 0.09631487222146214
0.0036426825552804717 0.044453158496823 0.09765735477008505
0.0036603380175139954 0.04505030784970106 0.09892519742499317
0.003677362157174432 0.04563664508060576 0.10011424642300393
0.0036926294639041822 0.04621215085202813 0.10122451078134585
0.0037051326977571345 0.04676748063204808 0.10226034792681515
0.003714058455611533 0.04728615070720211 0.10322944434123471
0.003718842962038476 0.04774746058994029 0.10414145282047656
0.003719206248598144 0.04812561124688097 0.10500840365137958
0.003715164522496519 0.048388572598338 0.10584523270539277
0.0037070218583473346 0.048503510893130465 0.10666725061213769
0.003695343396461056 0.04844540392895662 0.1074861254161716
0.003680913018392471 0.048204986156476295 0.1083061777141088
0.0036646790161518838 0.04779377778948655 0.10912203554203213
0.003647691596346039 0.04724523138035646 0.10991809971858711
0.0036310361855396924 0.04661198758113002 0.11066982350459525
0.005410766489344848 -0.0001086470400052152 0.009217927925865038
0.005892211109850776 0.00029050133393024557 0.013554257795768892
0.006132458642509649 0.001476416675341361 0.01743987677138102
0.006047255650667177 0.0031599402072045044 0.021009621804850283
0.005720055990603616 0.005111113847061123 0.024370724111081734
0.005325630843128663 0.0069884958796921194 0.027682400576695618
0.005016871435172548 0.008675643119295837 0.030998949550971214
0.004834968294868498 0.010392296918622937 0.03421790395830754
0.004732241848104854 0.01215043923052049 0.03733367652233238
0.00464908530328423 0.013857037108864784 0.040389649218283925
0.004547585503985086 0.015603039715974069 0.04334341175527038
0.004411660012619469 0.01739971377283742 0.04618971037501227
0.004242349868979272 0.019160628446137442 0.04896884843698619
0.00405227310746894 0.020841474052855014 0.0517014878857144
0.003859297849485217 0.022464508150060413 0.054377249851883185
0.0036804214720396232 0.02407323700318594 0.056975847030743765
0.003527506244425096 0.02569196478472853 0.05948594620053567
0.003405829147614405 0.027306373161807923 0.061914224109533005
0.003315379723667389 0.028874729265658785 0.06428014111403782
0.003253134023982613 0.030357052437658807 0.06660234050134375
0.003214621311891553 0.03173682311904509 0.06888852546821131
0.0031948391851961662 0.03302260778206942 0.07113470140302611
0.0031888698585714084 0.034234759927158694 0.07333137731266881
0.0031922930777549615 0.03539300461570983 0.07546935524995246
0.003201436081938149 0.03651143901986296 0.07754206159554979
0.0032135028026517493 0.03759800873303998 0.07954579125839958
0.003226618152360912 0.03865500926802529 0.08147947382331108
0.0032398057236901635 0.03967984162907717 0.08334432122190216
0.003252904392775423 0.04066598820855399 0.08514337266452897
0.003266372004343082 0.04160471489147801 0.08688070093589281
0.0032809500730880004 0.04248779376335471 0.08856014277553315
0.0032973286136308236 0.04331006184332704 0.09018410572096253
0.0033159342695244357 0.04407077099636499 0.09175293863327476
0.0033368336138182735 0.04477385393676104 0.09326480765767795
0.0033597203855484335 0.045427429648148825 0.09471592684992727
0.0033839603409402744 0.046042814690361915 0.09610101921150839
0.003408672097906746 0.04663287130153506 0.09741408698227805
0.0034328265552422406 0.04720839830397449 0.09865009458869578
0.0034553512046890385 0.04777347960542625 0.09980713767330443
0.003475228953835527 0.048323177094763366 0.10088751891513932
0.0034915839677176984 0.048844419148887146 0.10189733371215587
0.0035037495424018335 0.04931854728692778 0.10284528265687322
0.0035113151685979642 0.04972232717556609 0.10374220009685026
0.003514151750190315 0.050026930775274106 0.1046015287676884
0.003512415433327221 0.05020007201009452 0.10543832391385839
0.0035065316976985676 0.050213015601660964 0.10626598501572167
0.0034971622838568268 0.05004884441809282 0.10709240066142812
0.003485158199815951 0.04970893375243073 0.10791692954130075
0.0034715024876191118 0.04921602663930893 0.10872896640411991
0.003457246657122113 0.048613423097046575 0.10950832011974512

CELLS 100 350
4 0 51 52 1
4 1 52 53 2
4 2 53 54 3
4 3 54 55 4
4 4 55 56 5
4 5 56 57 6
4 6 57 58 7
4 7 58 59 8
4 8 59 60 9
4 9 60 61 10
4 10 61 62 11
4 11 62 63 12
4 12 63 64 13
4 13 64 65 14
4 14 65 66 15
4 15 66 67 16
4 16 67 68 17
4 17 68 69 18
4 18 69 70 19
4 19 70 71 20
4 20 71 72 21
4 21 72 73 22
4 22 73 74 23
4 23 74 75 24
4 24 75 76 25
4 25 76 77 26
4 26 77 78 27
4 27 78 79 28
4 28 79 80 29
4 29 80 81 30
4 30 81 82 31
4 31 82 83 32
4 32 83 84 33
4 33 84 85 34
4 34 85 86 35
4 35 86 87 36
4 36 87 88 37
4 37 88 89 38
4 38 89 90 39
4 39 90 91 40
4 40 91 92 41
4 41 92 93 42
4 42 93 94 43
4 43 94 95 44
4 44 95 96 45
4 45 96 97 46
4 46 97 98 47
4 47 98 99 48
4 48 99 100 49
4 49 100 101 50
1 102
1 103
1 104
1 105
1 106
1 107
1 108
1 109
1 110
1 111
1 112
1 113
1 114
1 115
1 116
1 117
1 118
1 119
1 120
1 121
1 122
1 123
1 124
1 125
1 126
1 127
1 128
1 129
1 130
1 131
1 132
1 133
1 134
1 135
1 136
1 137
1 138
1 139
1 140
1 141
1 142
1 143
1 144
1 145
1 146
1 147
1 148
1 149
1 150
1 151

CELL_TYPES 100
9
9
9
9
9
9
9
9
9
9
9
9
9
9
9
9
9
9
9
9
9
9
9
9
9
9
9
9
9
9
9
9
9
9
9
9
9
9
9
9
9
9
9
9
9
9
9
9
9
9
1
1
1
1
1
1
1
1
1
1
1
1
1
1
1
1
1
1
1
1
1
1
1
1
1
1
1
1
1
1
1
1
1
1
1
1
1
1
1
1
1
1
1
1
1
1
1
1
1
1

CELL_DATA 100

VECTORS S float
-4.5156514806269995e-20 5.26734675516e-20 1.7344088640581999e-19
-5.5293156352754e-18 -1.02261616370194e-18 2.12483097759898e-18
4.0401521095561997e-19 -8.181440548221899e-19 -2.25384816936621e-18
2.8533640833683997e-19 -3.7123611524999996e-18 -9.29800364603231e-18
-4.1129306768122e-19 1.133341841567324e-17 2.8797038123428075e-17
1.9310517073305e-19 -9.59752334416912e-18 -2.4917600981652437e-17
2.5098124522571e-19 -2.7042436238672327e-17 -7.202228631194712e-17
-1.2156949549599999e-20 8.6948188162268e-18 2.3765800994954117e-17
1.4541577948504e-19 2.79374534802459e-17 7.834758676583067e-17
2.9017857752567e-19 2.638642672155162e-17 7.583241756201731e-17
6.147361826769599e-19 3.886571625364468e-17 1.1413607271322682e-16
-1.12706224418318e-18 -5.59182913560669e-17 -1.6760499718996257e-16
1.16254907532315e-18 4.858369180269179e-17 1.482784857045566e-16
-3.6668794567e-21 -1.3519853103429e-19 -4.1918776011736997e-19
9.3600149062755e-19 3.21329678467429e-17 1.0102050339139647e-16
1.12458271382717e-18 3.6843060123926636e-17 1.172516399294341e-16
-3.3155238019925e-19 -1.0512585329375519e-17 -3.382047315533139e-17
8.6849019629123e-19 2.712448670175113e-17 8.811590168253765e-17
1.4088830553559699e-18 4.31237481470095e-17 1.4132204077437071e-16
1.1694288014794e-19 3.45012970703485e-18 1.139400290573824e-17
7.144034442329199e-19 2.110746455080321e-17 7.018937708574625e-17
3.0084637059790998e-19 9.10167882315863e-18 3.0448729906433295e-17
5.483304490648e-20 1.6729657260924e-18 5.62440687530145e-18
1.7086966096299e-19 5.2784576852851496e-18 1.7814040822353298e-17
3.14964962746e-21 9.987146945542999e-20 3.3794896133723e-19
-5.133980393425299e-19 -1.687262166267716e-17 -5.717204567550855e-17
8.123147765154e-20 2.81510660444662e-18 9.539053557940759e-18
-1.5998000174078e-19 -5.87311513710108e-18 -1.9903504028926158e-17
4.7463099053617e-19 1.8952461267786908e-17 6.40429368838594e-17
-3.2099610235393e-19 -1.4151698599029478e-17 -4.7631427751353405e-17
-1.4469284456717e-19 -7.044905796689409e-18 -2.35950166446919e-17
-1.0001470227517e-19 -5.49919183322167e-18 -1.831327936923328e-17
-8.931567690003999e-20 -5.5720721961027995e-18 -1.8457635138475768e-17
-5.0091087357779995e-20 -3.4679768427977398e-18 -1.1407854780638539e-17
-4.933996131582e-20 -3.7641880105594294e-18 -1.2294800421776939e-17
2.8362942417049996e-20 2.3732441777697198e-18 7.69698647152046e-18
4.663903504077e-20 4.1903609566218394e-18 1.350429625655482e-17
-4.944260860373e-20 -4.73475480172539e-18 -1.515851780406444e-17
1.9517031421316e-19 2.009561303136427e-17 6.393475537040307e-17
-1.0996878808192998e-19 -1.1913755803615859e-17 -3.768061933962997e-17
1.680418018093e-20 2.00184521357432e-18 6.296331781803449e-18
-1.5133963573279998e-20 -1.84731691834104e-18 -5.7804922673558394e-18
-5.147697769584e-20 -5.61214379628022e-18 -1.748006035817266e-17
-3.5922916522462997e-19 -3.267215009889148e-17 -1.0134469536797507e-16
-3.933738479121e-20 -2.34222503114548e-18 -7.23891406211278e-18
-2.0792780125493999e-19 -9.31103643444088e-18 -2.868559653172348e-17
1.1874577100019999e-20 4.2178475713959e-19 1.2958727913341099e-18
-1.06694289503833e-18 -2.861983259104517e-17 -8.772436133631284e-17
-7.2053118253836e-19 -1.4012144831472878e-17 -4.286547025529058e-17
2.7062350234620697e-18 2.672200847348971e-17 8.163485832771877e-17
-4.5156514806269995e-20 5.26734675516e-20 1.7344088640581999e-19
-5.5293156352754e-18 -1.02261616370194e-18 2.12483097759898e-18
4.0401521095561997e-19 -8.181440548221899e-19 -2.25384816936621e-18
2.8533640833683997e-19 -3.7123611524999996e-18 -9.29800364603231e-18
-4.1129306768122e-19 1.133341841567324e-17 2.8797038123428075e-17
1.9310517073305e-19 -9.59752334416912e-18 -2.4917600981652437e-17
2.5098124522571e-19 -2.7042436238672327e-17 -7.202228631194712e-17
-1.2156949549599999e-20 8.6948188162268e-18 2.3765800994954117e-17
1.4541577948504e-19 2.79374534802459e-17 7.834758676583067e-17
2.9017857752567e-19 2.638642672155162e-17 7.583241756201731e-17
6.147361826769599e-19 3.886571625364468e-17 1.1413607271322682e-16
-1.12706224418318e-18 -5.59182913560669e-17 -1.6760499718996257e-16
1.16254907532315e-18 4.858369180269179e-17 1.482784857045566e-16
-3.6668794567e-21 -1.3519853103429e-19 -4.1918776011736997e-19
9.3600149062755e-19 3.21329678467429e-17 1.0102050339139647e-16
1.12458271382717e-18 3.6843060123926636e-17 1.172516399294341e-16
-3.3155238019925e-19 -1.0512585329375519e-17 -3.382047315533139e-17
8.6849019629123e-19 2.712448670175113e-17 8.811590168253765e-17
1.4088830553559699e-18 4.31237481470095e-17 1.4132204077437071e-16
1.1694288014794e-19 3.45012970703485e-18 1.139400290573824e-17
7.144034442329199e-19 2.110746455080321e-17 7.018937708574625e-17
3.0084637059790998e-19 9.10167882315863e-18 3.0448729906433295e-17
5.483304490648e-20 1.6729657260924e-18 5.62440687530145e-18
1.7086966096299e-19 5.2784576852851496e-18 1.7814040822353298e-17
3.14964962746e-21 9.987146945542999e-20 3.3794896133723e-19
-5.133980393425299e-19 -1.687262166267716e-17 -5.717204567550855e-17
8.123147765154e-20 2.81510660444662e-18 9.539053557940759e-18
-1.5998000174078e-19 -5.87311513710108e-18 -1.9903504028926158e-17
4.7463099053617e-19 1.8952461267786908e-17 6.40429368838594e-17
-3.2099610235393e-19 -1.4151698599029478e-17 -4.7631427751353405e-17
-1.4469284456717e-19 -7.044905796689409e-18 -2.35950166446919e-17
-1.0001470227517e-19 -5.49919183322167e-18 -1.831327936923328e-17
-8.931567690003999e-20 -5.5720721961027995e-18 -1.8457635138475768e-17
-5.0091087357779995e-20 -3.4679768427977398e-18 -1.1407854780638539e-17
-4.933996131582e-20 -3.7641880105594294e-18 -1.2294800421776939e-17
2.8362942417049996e-20 2.3732441777697198e-18 7.69698647152046e-18
4.663903504077e-20 4.1903609566218394e-18 1.350429625655482e-17
-4.944260860373e-20 -4.73475480172539e-18 -1.515851780406444e-17
1.9517031421316e-19 2.009561303136427e-17 6.393475537040307e-17
-1.0996878808192998e-19 -1.1913755803615859e-17 -3.768061933962997e-17
1.680418018093e-20 2.00184521357432e-18 6.296331781803449e-18
-1.5133963573279998e-20 -1.84731691834104e-18 -5.7804922673558394e-18
-5.147697769584e-20 -5.61214379628022e-18 -1.748006035817266e-17
-3.5922916522462997e-19 -3.267215009889148e-17 -1.0134469536797507e-16
-3.933738479121e-20 -2.34222503114548e-18 -7.23891406211278e-18
-2.0792780125493999e-19 -9.31103643444088e-18 -2.868559653172348e-17
1.1874577100019999e-20 4.2178475713959e-19 1.2958727913341099e-18
-1.06694289503833e-18 -2.861983259104517e-17 -8.772436133631284e-17
-7.2053118253836e-19 -1.4012144831472878e-17 -4.286547025529058e-17
2.7062350234620697e-18 2.672200847348971e-17 8.163485832771877e-17

SCALARS Gamma float
LOOKUP_TABLE default
0.00014519277874797197
9.335148020441648e-5
0.0028484975442283835
0.024519636395615385
0.05689220424353836
0.10018165591774802
0.14721498000968175
0.19018795194846821
0.23189658736651
0.262187259310252
0.28103743713498464
0.28434298198545604
0.27721545189416597
0.25177872783100075
0.2389911099650749
0.23009344949069938
0.2185317286101244
0.21341729897994785
0.20762497612574937
0.20052469312262458
0.1995628036478244
0.1969152310510128
0.189800711197992
0.18649936636861356
0.1842680317230065
0.18388428918400043
0.18502165856237754
0.1856565312100592
0.18804492147019464
0.19150901665193304
0.19206889395458454
0.1997636081396796
0.20045719430473385
0.19975700755081
0.19884983740115447
0.19743880387270782
0.1959461786162095
0.19370628315413504
0.19143845749533567
0.1864677756099475
0.18819734023486293
0.18242932714246646
0.1784924439057816
0.15518503504969947
0.11807612820822315
0.09177716057554161
0.07344531458642962
0.05624550319835988
0.04093759944595184
0.02135370075947305
0.00014519277874797197
9.335148020441648e-5
0.0028484975442283835
0.024519636395615385
0.05689220424353836
0.10018165591774802
0.14721498000968175
0.19018795194846821
0.23189658736651
0.262187259310252
0.28103743713498464
0.28434298198545604
0.27721545189416597
0.25177872783100075
0.2389911099650749
0.23009344949069938
0.2185317286101244
0.21341729897994785
0.20762497612574937
0.20052469312262458
0.1995628036478244
0.1969152310510128
0.189800711197992
0.18649936636861356
0.1842680317230065
0.18388428918400043
0.18502165856237754
0.1856565312100592
0.18804492147019464
0.19150901665193304
0.19206889395458454
0.1997636081396796
0.20045719430473385
0.19975700755081
0.19884983740115447
0.19743880387270782
0.1959461786162095
0.19370628315413504
0.19143845749533567
0.1864677756099475
0.18819734023486293
0.18242932714246646
0.1784924439057816
0.15518503504969947
0.11807612820822315
0.09177716057554161
0.07344531458642962
0.05624550319835988
0.04093759944595184
0.02135370075947305

VECTORS Ftot float
0.0008258622657121725 -0.0035673988715843913 0.001298427003011551
0.014985666611411494 -0.046136346226592226 0.016792256744279317
0.0005541897301619878 -0.10225701586728907 0.0372185100205798
-0.251362963115753 -0.21855802811127237 0.07954861669241867
-0.7595370454887398 -0.3665915199267322 0.1334284013877353
-1.5915243189669845 -0.5817827915155858 0.21175161891997196
-2.690598589017074 -0.8151068395801068 0.2966746273539539
-3.9061885953321953 -1.0605850961394236 0.38602140590110695
-5.270761489428288 -1.324354890519428 0.48202575975394474
-6.515887590097554 -1.5570666065402592 0.5667258975505363
-7.564372588548274 -1.7374324536403583 0.632373697173181
-8.228275464764414 -1.8237739122803893 0.6637994181012785
-8.568612729616722 -1.8497577760673576 0.6732567710909624
-8.267584956112401 -1.7449865157269382 0.6351231509204951
-8.304861940857673 -1.676924289542064 0.6103505265113071
-8.426918125044967 -1.624668358421153 0.5913309230194306
-8.40360282367639 -1.5504402724466733 0.5643141091781676
-8.590116209529526 -1.508047921057083 0.5488845551118033
-8.717201976638629 -1.4773393504533339 0.5377075494751766
-8.754073599741613 -1.4688703982301512 0.5346251029505156
-9.042438761873301 -1.4551469274623474 0.5296301680802127
-9.241811896165359 -1.4036915359150863 0.5109019371644969
-9.20292094761401 -1.3487181083338096 0.49089324584932365
-9.32352185591381 -1.3217263059252835 0.4810690332034255
-9.481479699030896 -1.2910028063455437 0.4698865938639101
-9.722096875479556 -1.2680191953068214 0.461521243569863
-10.036263337213075 -1.241214263207798 0.45176504615429186
-10.314090794749132 -1.2033889350180633 0.43799775259187823
-10.687635826647234 -1.1641906758200495 0.42373075300875
-11.120496283122874 -1.120862193232405 0.4079604750509259
-11.379131591097064 -1.0670787164290236 0.3883848903991485
-12.06080479813773 -1.034263194284837 0.3764410171167612
-12.31860152901105 -0.9601090340064233 0.34945111002841345
-12.479305687132689 -0.9137011329693241 0.3325600154161379
-12.615582751159904 -0.8757642005301908 0.3187521012289255
-12.708211402372795 -0.8417029255241327 0.30635481098556505
-12.782314848216165 -0.8225083845488227 0.2993685694101493
-12.796281473302002 -0.8085444141095536 0.2942860998180822
-12.796185090603116 -0.7866595404444819 0.2863206572233199
-12.601094786476638 -0.7694773230240384 0.2800668415235882
-12.850700059921897 -0.7450708510397602 0.271183612197859
-12.573950222721583 -0.7415671704007348 0.269908376734879
-12.40881400962312 -0.8516025733822368 0.309957988135632
-10.873950281964252 -0.9269007529725257 0.337364284200928
-8.334131201884947 -1.120737731092617 0.40791517453675
-6.521252181327294 -1.2003092957532357 0.4368768555672035
-5.250437364803524 -1.2500754981091946 0.454990271897241
-4.0434920021685485 -1.3036818848641203 0.47450140104259586
-2.958742036408818 -1.3411247639471604 0.4881294945140511
-1.5543831366711687 -1.406559120333882 0.5119456525371843
0.0008258622657121725 -0.0035673988715843913 0.001298427003011551
0.014985666611411494 -0.046136346226592226 0.016792256744279317
0.0005541897301619878 -0.10225701586728907 0.0372185100205798
-0.251362963115753 -0.21855802811127237 0.07954861669241867
-0.7595370454887398 -0.3665915199267322 0.1334284013877353
-1.5915243189669845 -0.5817827915155858 0.21175161891997196
-2.690598589017074 -0.8151068395801068 0.2966746273539539
-3.9061885953321953 -1.0605850961394236 0.38602140590110695
-5.270761489428288 -1.324354890519428 0.48202575975394474
-6.515887590097554 -1.5570666065402592 0.5667258975505363
-7.564372588548274 -1.7374324536403583 0.632373697173181
-8.228275464764414 -1.8237739122803893 0.6637994181012785
-8.568612729616722 -1.8497577760673576 0.6732567710909624
-8.267584956112401 -1.7449865157269382 0.6351231509204951
-8.304861940857673 -1.676924289542064 0.6103505265113071
-8.426918125044967 -1.624668358421153 0.5913309230194306
-8.40360282367639 -1.5504402724466733 0.5643141091781676
-8.590116209529526 -1.508047921057083 0.5488845551118033
-8.717201976638629 -1.4773393504533339 0.5377075494751766
-8.754073599741613 -1.4688703982301512 0.5346251029505156
-9.042438761873301 -1.4551469274623474 0.5296301680802127
-9.241811896165359 -1.4036915359150863 0.5109019371644969
-9.20292094761401 -1.3487181083338096 0.49089324584932365
-9.32352185591381 -1.3217263059252835 0.4810690332034255
-9.481479699030896 -1.2910028063455437 0.4698865938639101
-9.722096875479556 -1.2680191953068214 0.461521243569863
-10.036263337213075 -1.241214263207798 0.45176504615429186
-10.314090794749132 -1.2033889350180633 0.43799775259187823
-10.687635826647234 -1.1641906758200495 0.42373075300875
-11.120496283122874 -1.120862193232405 0.4079604750509259
-11.379131591097064 -1.0670787164290236 0.3883848903991485
-12.06080479813773 -1.034263194284837 0.3764410171167612
-12.31860152901105 -0.9601090340064233 0.34945111002841345
-12.479305687132689 -0.9137011329693241 0.3325600154161379
-12.615582751159904 -0.8757642005301908 0.3187521012289255
-12.708211402372795 -0.8417029255241327 0.30635481098556505
-12.782314848216165 -0.8225083845488227 0.2993685694101493
-12.796281473302002 -0.8085444141095536 0.2942860998180822
-12.796185090603116 -0.7866595404444819 0.2863206572233199
-12.601094786476638 -0.7694773230240384 0.2800668415235882
-12.850700059921897 -0.7450708510397602 0.271183612197859
-12.573950222721583 -0.7415671704007348 0.269908376734879
-12.40881400962312 -0.8516025733822368 0.309957988135632
-10.873950281964252 -0.9269007529725257 0.337364284200928
-8.334131201884947 -1.120737731092617 0.40791517453675
-6.521252181327294 -1.2003092957532357 0.4368768555672035
-5.250437364803524 -1.2500754981091946 0.454990271897241
-4.0434920021685485 -1.3036818848641203 0.47450140104259586
-2.958742036408818 -1.3411247639471604 0.4881294945140511
-1.5543831366711687 -1.406559120333882 0.5119456525371843

VECTORS D float
0.0015123940444866663 -0.0032139051489910703 0.001369815258474702
0.015620552563746216 -0.04498383923550076 0.018999047378529792
0.027745606907679073 -0.09348353881751013 0.03890796635154109
0.04014183831914411 -0.14692879245789867 0.05989529478320939
0.047127321478930735 -0.18121070170745499 0.07199073167126879
0.05490381243508117 -0.22014152605030288 0.08521749934620515
0.05585417191738849 -0.2316001816631798 0.08715429371296009
0.05684534799408553 -0.24328625034980453 0.08903638188957759
0.058316726466178935 -0.25778706030976306 0.0918143637847757
0.06188494231881995 -0.2834305844009566 0.09838487155323114
0.06678333494022913 -0.31933115388751815 0.10837923183701866
0.06960100036107049 -0.34845918661209574 0.11578889644330445
0.0733725171999889 -0.3861334358457743 0.1259419975938338
0.07272373716109527 -0.40328235940166274 0.12943248483721478
0.0681696832701375 -0.39876370057124355 0.12620857960239945
0.06398789889706023 -0.39480672886922524 0.12344329147785738
0.05943384092462781 -0.38644839839809353 0.11953902340660222
0.055151024479115345 -0.37738994848949275 0.11562737622330188
0.05348397087147176 -0.3841679430713251 0.11669382123626476
0.056189537894011155 -0.42403420142374143 0.12782180597846515
0.053940881385662415 -0.4274068448932047 0.12798146455884848
0.04853128294641396 -0.4040176769778251 0.12028871764605432
0.046039113358654404 -0.4035307926196806 0.11958038165034574
0.044919194370346555 -0.41606673029521096 0.12285338988665886
0.04315709720329282 -0.42470538350359455 0.1251077110392945
0.0416480628447059 -0.4384873468172262 0.12903244908851438
0.039470850737069164 -0.4483805629242065 0.1319871830906968
0.03676628196641204 -0.45302070000812755 0.13338158230463615
0.033745344058678774 -0.45576511285650156 0.13462615054928517
0.030492155199613683 -0.4558113255875533 0.13521989448625535
0.027499176637440653 -0.459762255125558 0.13710534266013663
0.024650349383569782 -0.46613592240207835 0.13983871532001874
0.021020962986140236 -0.4617479559920573 0.13929278731342157
0.018836225167541853 -0.47969724434852046 0.14574479075382601
0.016836815397382195 -0.5044150136251198 0.15436462193008615
0.014806734807117606 -0.5307797263309834 0.16360298115188726
0.012920031436982116 -0.5708461564678157 0.17708800392620824
0.01101995736435736 -0.6094237800057781 0.1903172427884517
0.008877116507599588 -0.6348948295984883 0.1995294763810506
0.006832030489386776 -0.6617077113223727 0.20919700668669086
0.004080542369172378 -0.6854792711328461 0.21792924440831607
0.0024217506010163264 -0.7123191258244644 0.22763502844541603
0.0010090215131700882 -0.8488666266007384 0.2725339348580338
-0.000665820781512724 -0.9450953857619275 0.30468824610414275
-0.0026587464145170128 -1.1514139948269246 0.3725662778815274
-0.004521536346497024 -1.2357527514877735 0.40114484052818417
-0.0061637521409173375 -1.2869312241100368 0.41893090849429276
-0.007678968174475633 -1.3390748392997909 0.4369628933657263
-0.00895661413275237 -1.3731550137866202 0.44901643057650387
-0.010273141162129537 -1.431709797798615 0.46899037576656044
0.0015123940444866663 -0.0032139051489910703 0.001369815258474702
0.015620552563746216 -0.04498383923550076 0.018999047378529792
0.027745606907679073 -0.09348353881751013 0.03890796635154109
0.04014183831914411 -0.14692879245789867 0.05989529478320939
0.047127321478930735 -0.18121070170745499 0.07199073167126879
0.05490381243508117 -0.22014152605030288 0.08521749934620515
0.05585417191738849 -0.2316001816631798 0.08715429371296009
0.05684534799408553 -0.24328625034980453 0.08903638188957759
0.058316726466178935 -0.25778706030976306 0.0918143637847757
0.06188494231881995 -0.2834305844009566 0.09838487155323114
0.06678333494022913 -0.31933115388751815 0.10837923183701866
0.06960100036107049 -0.34845918661209574 0.11578889644330445
0.0733725171999889 -0.3861334358457743 0.1259419975938338
0.07272373716109527 -0.40328235940166274 0.12943248483721478
0.0681696832701375 -0.39876370057124355 0.12620857960239945
0.06398789889706023 -0.39480672886922524 0.12344329147785738
0.05943384092462781 -0.38644839839809353 0.11953902340660222
0.055151024479115345 -0.37738994848949275 0.11562737622330188
0.05348397087147176 -0.3841679430713251 0.11669382123626476
0.056189537894011155 -0.42403420142374143 0.12782180597846515
0.053940881385662415 -0.4274068448932047 0.12798146455884848
0.04853128294641396 -0.4040176769778251 0.12028871764605432
0.046039113358654404 -0.4035307926196806 0.11958038165034574
0.044919194370346555 -0.41606673029521096 0.12285338988665886
0.04315709720329282 -0.42470538350359455 0.1251077110392945
0.0416480628447059 -0.4384873468172262 0.12903244908851438