# vtk DataFile Version 4.0
[MyVLM domain - lattices] 
ASCII
DATASET UNSTRUCTURED_GRID
POINTS 152 float
0.0018916144324157278 0.0012238058585733768 0.010048498487781703
0.0010688609733395774 -0.0009871221593833834 0.013687786282754648
0.00045780959861706216 -0.0031447894206541116 0.01727288189091083
-0.00013255382275044122 -0.005346101034748392 0.020706880202740672
-0.0007201482309470062 -0.0075503704809859445 0.02403046773892445
-0.0011946371146526612 -0.009863368644321061 0.027137873614507875
-0.0014108622120167862 -0.012499930035795945 0.029814263318448733
-0.0013224843579428829 -0.01528095522339014 0.032238736282767494
-0.0010167791708201568 -0.017945024248054525 0.03467271246651328
-0.0006138083932142036 -0.020666989840683023 0.03694133913879216
-0.00020084691410191335 -0.02336611383568098 0.03912535446519879
0.0001698744379422134 -0.02594096432337338 0.04132619035540818
0.0004739400232210948 -0.02844363044617488 0.04349175766700569
0.0007082255455298663 -0.030931957142240844 0.04556421146183594
0.0008836440760600275 -0.033397631415241075 0.047551864736229126
0.001017516815515788 -0.03579876363576197 0.04949660711959887
0.0011275777072549662 -0.038096986933994256 0.051436805481754416
0.0012277625198140337 -0.040282713716870214 0.053382047415763495
0.00132638558954348 -0.04237986207523706 0.055308414830778925
0.0014271324949937316 -0.04442366316493906 0.05718067657095641
0.0015306083418583354 -0.04643737405773315 0.05897557556453901
0.0016355657532635378 -0.04842152265298502 0.06069258391216104
0.0017398364473795213 -0.05036186868472531 0.06234594187979186
0.0018410131526058282 -0.05224194015339807 0.06395212146698742
0.001936923789896676 -0.05404963087198392 0.0655232288607671
0.0020259353317291845 -0.055778178917625085 0.06706602598398868
0.0021071205190511294 -0.05742579600527815 0.06858230112169555
0.002180316672546981 -0.05899506393350722 0.07006947247532364
0.0022461021518325993 -0.06049218426631788 0.07152133848086734
0.0023056987632523672 -0.06192604669084574 0.07292900945119106
0.0023607022647827588 -0.06330636123197834 0.07428277536140725
0.0024126938092907785 -0.06464115034086454 0.07557461376036703
0.0024629658139780817 -0.06593515346900536 0.07679978519656942
0.0025123806343549317 -0.06718922206521519 0.0779574382212
0.0025613283706516186 -0.06840043240311418 0.07905049656063864
0.0026097549007438213 -0.0695626843060998 0.08008506039148786
0.0026572361369983943 -0.07066760157372495 0.08106950591419475
0.002703078927872171 -0.07170618154413273 0.08201283579061622
0.0027464329900004744 -0.07267276465078908 0.08292070958728634
0.0027864017842759935 -0.07356832457974832 0.08379215361815076
0.0028221433614242725 -0.07440079235515971 0.08461923685906025
0.0028529549202113143 -0.07518337136722744 0.08538875591981061
0.002878337166053322 -0.07593228388567222 0.08608448853068114
0.0028980365508205295 -0.07666749055558633 0.08668647404657953
0.0029120651374179955 -0.07741360934466847 0.08717009449980712
0.002920699186668212 -0.07819571915712498 0.08751027098615753
0.0029244586304951574 -0.0790326778958562 0.08768814560273044
0.002924070395798875 -0.07993096391194054 0.08769723999844745
0.0029204190990956736 -0.0808807920674178 0.08754733931126875
0.0029144889643634465 -0.08185525754919823 0.0872653483542841
0.002907300946956263 -0.0828125130007891 0.08689311448398618
0.006212993241944028 -0.009096643393150016 -0.0002719507639417304
0.0072288922610571306 -0.014180060045423243 0.0004948483967147342
0.007974780507892725 -0.018142579356022325 0.002275091955542559
0.008270023946844132 -0.021382215203039907 0.0046707660344490936
0.008140225139500825 -0.024083823286253657 0.007497014933656672
0.007751519283975376 -0.026519292258289428 0.010481950000539437
0.007318662739924205 -0.029020251342090915 0.013293942012153701
0.0069707766105224795 -0.03148542541700259 0.016034266089154984
0.006702226685381192 -0.03370574667062821 0.01891199004393953
0.006460614097576536 -0.03589420961379614 0.021714119365678984
0.006208498480286784 -0.038000007850108125 0.02449146045077159
0.005928720355726676 -0.03994544691324474 0.027321707765536767
0.00562110152420414 -0.04180122788950786 0.030134160223672653
0.005297776270156929 -0.04363982861371769 0.032856339990359036
0.004977662142563614 -0.04546444908627377 0.03548504706519638
0.004680078492205027 -0.04724231556931667 0.03805305518604411
0.0044193472589770496 -0.04894243703456196 0.040591355381186675
0.0042022226504668725 -0.050561223300802836 0.043103537831830845
0.004028605706719037 -0.052127277714913996 0.04556099919110195
0.003894567528214928 -0.05367910780771402 0.04792523192818142
0.003794542923454683 -0.055241891706088724 0.050171057916183405
0.0037223892098821663 -0.05681689271679955 0.052297213848346485
0.0036720478837599236 -0.058389595353621496 0.05431821521089563
0.0036379885391020494 -0.059942406062404426 0.05625165555798103
0.003615480687410345 -0.0614614054956928 0.05811145423705818
0.003600729157216099 -0.06293747250847573 0.059906732393138
0.0035909263662617956 -0.06436604711578313 0.06164205001119054
0.003584242976167935 -0.06574664887043158 0.06331788753839926
0.00357976601221264 -0.06708223777099942 0.06493128497618578
0.003577378730160166 -0.06837838360624637 0.0664766725357904
0.0035774796054096774 -0.06964148844070203 0.06794764815268353
0.003580588564800478 -0.07087635796669875 0.06933940613453281
0.0035870678637920984 -0.07208467436085428 0.07065026430472049
0.0035969747054953923 -0.07326444834496768 0.07188221194144749
0.0036100119296844893 -0.07441017775023767 0.07304075121351514
0.0036255480079795204 -0.0755134807669514 0.07413426393063623
0.0036426825552804717 -0.07656402000255809 0.07517308748536158
0.0036603380175139954 -0.07755116528243468 0.07616785205231426
0.003677362157174432 -0.07846796670786704 0.07712550753020835
0.0036926294639041822 -0.07931443936609593 0.07804603883180314
0.0037051326977571345 -0.08009787391707393 0.07892215529714601
0.003714058455611533 -0.08083113105309114 0.0797409962339469
0.003718842962038476 -0.08153036141891723 0.0804864109974361
0.003719206248598144 -0.08221569357541547 0.08113827102675038
0.003715164522496519 -0.08291211758321645 0.0816715862612591
0.0037070218583473346 -0.08364525053228002 0.08206073961100246
0.003695343396461056 -0.08443461489519315 0.08228620860339349
0.003680913018392471 -0.08528743970922502 0.08234076420116296
0.0036646790161518838 -0.08619473683434954 0.08223339454433698
0.003647691596346039 -0.08713040638820171 0.08199019951528058
0.0036310361855396924 -0.08805337781775437 0.08165224966702089
0.005410766489344848 -0.008699178327066223 0.0030506222086069206
0.005892211109850776 -0.012637478723046776 0.004908811153804669
0.006132458642509649 -0.01588315926657365 0.007352167007953308
0.006047255650667177 -0.01866182337295188 0.010155086355747802
0.005720055990603616 -0.021152885719867034 0.013138154519502582
0.005325630843128663 -0.023622741185157257 0.016034976621379503
0.005016871435172548 -0.02616223944205833 0.018754702988142788
0.004834968294868498 -0.028599936966792125 0.021468777143570535
0.004732241848104854 -0.030926485367751326 0.024186547479270123
0.00464908530328423 -0.0332144695085096 0.026835429131667837
0.004547585503985086 -0.03539293030613912 0.029486381183691505
0.004411660012619469 -0.03745307739722576 0.03214819399875527
0.004242349868979272 -0.039462344637261546 0.034753433721367084
0.00405227310746894 -0.04145530270718204 0.037267529670591416
0.003859297849485217 -0.043414586127221794 0.03970784732619369
0.0036804214720396232 -0.045306251047674016 0.04210833053788071
0.003527506244425096 -0.04711133520711985 0.04448794156707131
0.003405829147614405 -0.048841009854907226 0.04683550916441761
0.003315379723667389 -0.05052783522600752 0.04911847309494819
0.003253134023982613 -0.05220300447051006 0.05130564020857374
0.003214621311891553 -0.053879406247422865 0.05338412184628622
0.0031948391851961662 -0.05555035694362168 0.055360601621209905
0.0031888698585714084 -0.05719997663577515 0.057250959456676166
0.0031922930777549615 -0.05881287571245921 0.05907058496410902
0.003201436081938149 -0.06037805547526433 0.06083047684191804
0.0032135028026517493 -0.06188931672445998 0.06253683428983373
0.003226618152360912 -0.06334486848717868 0.06419144828072358
0.0032398057236901635 -0.06474673851551477 0.06579229106249326
0.003252904392775423 -0.06610001188611263 0.06733427755849837
0.003266372004343082 -0.06741150300795867 0.06881059335975251
0.0032809500730880004 -0.06868763134938066 0.07021481899792792
0.0032973286136308236 -0.06993242509906612 0.07154292628433705
0.0033159342695244357 -0.0711464679564608 0.07279433151953418
0.0033368336138182735 -0.07232669159424318 0.07397210303084083
0.0033597203855484335 -0.07346676153259765 0.07508257529807258
0.0033839603409402744 -0.07455784852354416 0.07613457756920951
0.003408672097906746 -0.0755899173716045 0.07713814503972982
0.0034328265552422406 -0.07655454277072837 0.0781017030156838
0.0034553512046890385 -0.07744853843155329 0.07902843778643395
0.003475228953835527 -0.0782757570980522 0.07991449660800731
0.0034915839677176984 -0.0790463973291103 0.0807496809215187
0.0035037495424018335 -0.0797750165836156 0.0815194332680801
0.0035113151685979642 -0.08047974242803209 0.08220562608122751
0.003514151750190315 -0.08118306667201883 0.08278576755130189
0.003512415433327221 -0.08191017910603536 0.08323466788784367
0.0035065316976985676 -0.08268349916692509 0.08352990765400949
0.0034971622838568268 -0.08351622570263141 0.08365828800185592
0.003485158199815951 -0.08440728570126026 0.083620881943277
0.0034715024876191118 -0.08533893491053372 0.0834354337305507
0.003457246657122113 -0.08627739039598194 0.08313572629814683

CELLS 100 350
4 0 51 52 1
4 1 52 53 2
4 2 53 54 3
4 3 54 55 4
4 4 55 56 5
4 5 56 57 6
4 6 57 58 7
4 7 58 59 8
4 8 59 60 9
4 9 60 61 10
4 10 61 62 11
4 11 62 63 12
4 12 63 64 13
4 13 64 65 14
4 14 65 66 15
4 15 66 67 16
4 16 67 68 17
4 17 68 69 18
4 18 69 70 19
4 19 70 71 20
4 20 71 72 21
4 21 72 73 22
4 22 73 74 23
4 23 74 75 24
4 24 75 76 25
4 25 76 77 26
4 26 77 78 27
4 27 78 79 28
4 28 79 80 29
4 29 80 81 30
4 30 81 82 31
4 31 82 83 32
4 32 83 84 33
4 33 84 85 34
4 34 85 86 35
4 35 86 87 36
4 36 87 88 37
4 37 88 89 38
4 38 89 90 39
4 39 90 91 40
4 40 91 92 41
4 41 92 93 42
4 42 93 94 43
4 43 94 95 44
4 44 95 96 45
4 45 96 97 46
4 46 97 98 47
4 47 98 99 48
4 48 99 100 49
4 49 100 101 50
1 102
1 103
1 104
1 105
1 106
1 107
1 108
1 109
1 110
1 111
1 112
1 113
1 114
1 115
1 116
1 117
1 118
1 119
1 120
1 121
1 122
1 123
1 124
1 125
1 126
1 127
1 128
1 129
1 130
1 131
1 132
1 133
1 134
1 135
1 136
1 137
1 138
1 139
1 140
1 141
1 142
1 143
1 144
1 145
1 146
1 147
1 148
1 149
1 150
1 151

CELL_TYPES 100
9
9
9
9
9
9
9
9
9
9
9
9
9
9
9
9
9
9
9
9
9
9
9
9
9
9
9
9
9
9
9
9
9
9
9
9
9
9
9
9
9
9
9
9
9
9
9
9
9
9
1
1
1
1
1
1
1
1
1
1
1
1
1
1
1
1
1
1
1
1
1
1
1
1
1
1
1
1
1
1
1
1
1
1
1
1
1
1
1
1
1
1
1
1
1
1
1
1
1
1

CELL_DATA 100

VECTORS S float
3.9522436568999996e-22 2.222469862986e-20 -2.049878712459e-20
-8.773904804188519e-18 1.2814170548293e-18 -5.13854582322801e-18
-1.54094911735986e-18 -7.146228466037719e-18 5.953199085792229e-18
7.0471190609321e-19 1.92611367869958e-17 -1.711516986790763e-17
-4.3133193546503e-19 -2.6807652094509978e-17 2.360022092183894e-17
-2.1763058237906997e-19 -2.6378850255103498e-17 2.2863654935537998e-17
3.7859238918469e-19 1.0751423316283828e-16 -9.174423772158897e-17
3.1434207160999996e-22 -1.181280760876202e-17 9.91070820667485e-18
-1.8070097080900998e-19 6.435311378544086e-17 -5.3120402627400737e-17
-1.0976100348252e-19 2.156056432562254e-17 -1.752987976690761e-17
5.1303072592921e-19 -7.31256709931497e-17 5.86341297716956e-17
-1.9586845550312e-19 2.284425825236342e-17 -1.808971869430793e-17
5.678207688600199e-19 -5.762571030922139e-17 4.51373589646527e-17
-5.1189096766504e-19 4.704542236674262e-17 -3.650619942605564e-17
-1.16040137009075e-18 1.0158629497450275e-16 -7.819143041490882e-17
-1.9737825164049998e-19 1.6949448603329518e-17 -1.296920965542134e-17
1.01798741614421e-18 -8.546944221216405e-17 6.495900990697104e-17
-1.2697945621909199e-18 1.0614037668807446e-16 -8.020168032651145e-17
-2.7996745446739e-19 2.3224778426542338e-17 -1.7461353072371198e-17
-1.39582762865164e-18 1.127098945408385e-16 -8.437717084713694e-17
3.5356318725347e-19 -2.8867190633468516e-17 2.1528932392684767e-17
-3.6674624303083996e-19 3.095210974843852e-17 -2.30088710832159e-17
-3.988739616574e-19 3.42566182659904e-17 -2.539898328108472e-17
-6.7164115218934e-19 5.890245763326816e-17 -4.3586501630555786e-17
6.1796210750447e-19 -5.606286037840077e-17 4.143224618123786e-17
-5.4203703616872e-19 5.022644418601613e-17 -3.707275887295172e-17
-1.1563119128664399e-18 1.1267546242934788e-16 -8.316546254741325e-17
3.0835675525636e-19 -3.180489837479757e-17 2.3467907357576368e-17
3.2876778096507996e-19 -3.6836117982542026e-17 2.7226590419241618e-17
-5.623629758765999e-20 6.93836949465684e-18 -5.14011977340521e-18
5.9789088712331e-19 -8.115903612917258e-17 6.029537728396978e-17
7.458839441305e-20 -1.1376633795470069e-17 8.479753121034659e-18
-2.2255538311185e-19 3.8266919240558556e-17 -2.86262962401184e-17
-1.6134436540867998e-19 3.057579811177226e-17 -2.2962244425672e-17
1.8724063160194998e-19 -3.88100742745476e-17 2.926338669351976e-17
-1.0828984810398e-19 2.442314207558362e-17 -1.849005549626514e-17
-1.8637807742837998e-19 4.48114819287469e-17 -3.40616221870018e-17
1.1059934089265e-19 -2.8201980406053396e-17 2.151675293393775e-17
-4.243682632285e-20 1.15625009041691e-17 -8.85466092872474e-18
-5.751438600412999e-20 1.6387298561758978e-17 -1.259375188684029e-17
-1.2338125509059998e-19 3.7357357498874486e-17 -2.88035131683482e-17
1.5663024236332e-19 -4.8253866901767217e-17 3.731740283667704e-17
1.9436529870985998e-19 -5.049113238211674e-17 3.912367704577664e-17
1.0995256965517e-19 -2.5313080141040717e-17 1.966262216844148e-17
2.7411442150202e-19 -4.3278958149499216e-17 3.36914571533968e-17
-3.2897661346574e-19 3.8029823217542037e-17 -2.966147852399764e-17
-6.5060079986109e-19 5.893963577959032e-17 -4.604565607777856e-17
-5.074771987872599e-19 3.442357843570264e-17 -2.6930345807621358e-17
9.117606359512999e-20 -4.4553717670199896e-18 3.48955858170912e-18
5.246634591246249e-18 -1.2945443690363558e-16 1.0147251524456843e-16
3.9522436568999996e-22 2.222469862986e-20 -2.049878712459e-20
-8.773904804188519e-18 1.2814170548293e-18 -5.13854582322801e-18
-1.54094911735986e-18 -7.146228466037719e-18 5.953199085792229e-18
7.0471190609321e-19 1.92611367869958e-17 -1.711516986790763e-17
-4.3133193546503e-19 -2.6807652094509978e-17 2.360022092183894e-17
-2.1763058237906997e-19 -2.6378850255103498e-17 2.2863654935537998e-17
3.7859238918469e-19 1.0751423316283828e-16 -9.174423772158897e-17
3.1434207160999996e-22 -1.181280760876202e-17 9.91070820667485e-18
-1.8070097080900998e-19 6.435311378544086e-17 -5.3120402627400737e-17
-1.0976100348252e-19 2.156056432562254e-17 -1.752987976690761e-17
5.1303072592921e-19 -7.31256709931497e-17 5.86341297716956e-17
-1.9586845550312e-19 2.284425825236342e-17 -1.808971869430793e-17
5.678207688600199e-19 -5.762571030922139e-17 4.51373589646527e-17
-5.1189096766504e-19 4.704542236674262e-17 -3.650619942605564e-17
-1.16040137009075e-18 1.0158629497450275e-16 -7.819143041490882e-17
-1.9737825164049998e-19 1.6949448603329518e-17 -1.296920965542134e-17
1.01798741614421e-18 -8.546944221216405e-17 6.495900990697104e-17
-1.2697945621909199e-18 1.0614037668807446e-16 -8.020168032651145e-17
-2.7996745446739e-19 2.3224778426542338e-17 -1.7461353072371198e-17
-1.39582762865164e-18 1.127098945408385e-16 -8.437717084713694e-17
3.5356318725347e-19 -2.8867190633468516e-17 2.1528932392684767e-17
-3.6674624303083996e-19 3.095210974843852e-17 -2.30088710832159e-17
-3.988739616574e-19 3.42566182659904e-17 -2.539898328108472e-17
-6.7164115218934e-19 5.890245763326816e-17 -4.3586501630555786e-17
6.1796210750447e-19 -5.606286037840077e-17 4.143224618123786e-17
-5.4203703616872e-19 5.022644418601613e-17 -3.707275887295172e-17
-1.1563119128664399e-18 1.1267546242934788e-16 -8.316546254741325e-17
3.0835675525636e-19 -3.180489837479757e-17 2.3467907357576368e-17
3.2876778096507996e-19 -3.6836117982542026e-17 2.7226590419241618e-17
-5.623629758765999e-20 6.93836949465684e-18 -5.14011977340521e-18
5.9789088712331e-19 -8.115903612917258e-17 6.029537728396978e-17
7.458839441305e-20 -1.1376633795470069e-17 8.479753121034659e-18
-2.2255538311185e-19 3.8266919240558556e-17 -2.86262962401184e-17
-1.6134436540867998e-19 3.057579811177226e-17 -2.2962244425672e-17
1.8724063160194998e-19 -3.88100742745476e-17 2.926338669351976e-17
-1.0828984810398e-19 2.442314207558362e-17 -1.849005549626514e-17
-1.8637807742837998e-19 4.48114819287469e-17 -3.40616221870018e-17
1.1059934089265e-19 -2.8201980406053396e-17 2.151675293393775e-17
-4.243682632285e-20 1.15625009041691e-17 -8.85466092872474e-18
-5.751438600412999e-20 1.6387298561758978e-17 -1.259375188684029e-17
-1.2338125509059998e-19 3.7357357498874486e-17 -2.88035131683482e-17
1.5663024236332e-19 -4.8253866901767217e-17 3.731740283667704e-17
1.9436529870985998e-19 -5.049113238211674e-17 3.912367704577664e-17
1.0995256965517e-19 -2.5313080141040717e-17 1.966262216844148e-17
2.7411442150202e-19 -4.3278958149499216e-17 3.36914571533968e-17
-3.2897661346574e-19 3.8029823217542037e-17 -2.966147852399764e-17
-6.5060079986109e-19 5.893963577959032e-17 -4.604565607777856e-17
-5.074771987872599e-19 3.442357843570264e-17 -2.6930345807621358e-17
9.117606359512999e-20 -4.4553717670199896e-18 3.48955858170912e-18
5.246634591246249e-18 -1.2945443690363558e-16 1.0147251524456843e-16

SCALARS Gamma float
LOOKUP_TABLE default
0.00022873319723954372
-0.00014514052980289276
0.0026378943252971855
0.022858080251224766
0.05680081439584598
0.09875282211496465
0.14548220752926605
0.1888223703923381
0.23063915794818057
0.2610636426701698
0.27890373623035336
0.2825121389838195
0.27604280816477667
0.25097658328632655
0.23886484882913442
0.2289099434098995
0.21775850159904248
0.21280177391521382
0.20745588949804553
0.20016526391884457
0.19924362403804954
0.19684690330314839
0.19015092621402682
0.18736594955316588
0.18565302780182918
0.1827894449350036
0.18350133825060777
0.18435463888209438
0.18705206097617733
0.19081642038934782
0.1916665512259485
0.19957251410604918
0.19970652169923633
0.19925041920069864
0.19850196893411318
0.19718123292915976
0.19538184744072512
0.19361048235081632
0.19142350462726923
0.18652965341370822
0.18414736521384434
0.1778327048274644
0.16672952246073125
0.1547508655054941
0.1235413781945057
0.0938067277964536
0.07445315120242432
0.05674489278619897
0.041181491658199766
0.02142799957296996
0.00022873319723954372
-0.00014514052980289276
0.0026378943252971855
0.022858080251224766
0.05680081439584598
0.09875282211496465
0.14548220752926605
0.1888223703923381
0.23063915794818057
0.2610636426701698
0.27890373623035336
0.2825121389838195
0.27604280816477667
0.25097658328632655
0.23886484882913442
0.2289099434098995
0.21775850159904248
0.21280177391521382
0.20745588949804553
0.20016526391884457
0.19924362403804954
0.19684690330314839
0.19015092621402682
0.18736594955316588
0.18565302780182918
0.1827894449350036
0.18350133825060777
0.18435463888209438
0.18705206097617733
0.19081642038934782
0.1916665512259485
0.19957251410604918
0.19970652169923633
0.19925041920069864
0.19850196893411318
0.19718123292915976
0.19538184744072512
0.19361048235081632
0.19142350462726923
0.18652965341370822
0.18414736521384434
0.1778327048274644
0.16672952246073125
0.1547508655054941
0.1235413781945057
0.0938067277964536
0.07445315120242432
0.05674489278619897
0.041181491658199766
0.02142799957296996

VECTORS Ftot float
-0.001160876646616874 -0.000208094060856192 -0.000247996844622886
0.017425016972704918 -0.03157183189512596 -0.03762584408579698
0.002244914640634205 -0.06719425540993323 -0.0800789952864812
-0.23178625919908336 -0.143796508502396 -0.17137000561023502
-0.7585441641585414 -0.2482437948531783 -0.29584543435549654
-1.5694490439409878 -0.39305293066942726 -0.46842224220497486
-2.661038866926308 -0.5528472962361507 -0.6588577514454308
-3.8765837407692127 -0.7229751348469291 -0.8616082143101146
-5.238298452805092 -0.9043478422276782 -1.0777597899296618
-6.4812977430158005 -1.0629443853309184 -1.2667677899459715
-7.498890179758072 -1.1843846471199304 -1.4114946582186088
-8.1671092237439 -1.244139942401186 -1.482708246046573
-8.525027388151344 -1.2628647425672688 -1.5050235939151109
-8.235360763735756 -1.19117642819268 -1.4195887877121711
-8.295969877488892 -1.145842516523883 -1.3655619356145337
-8.370732273107 -1.1063745807966172 -1.318525881419287
-8.363264801164208 -1.0570364948264537 -1.2597270402126224
-8.556025072943925 -1.0288509186173531 -1.2261367785060888
-8.702515721428552 -1.0088081564760392 -1.2022507447186666
-8.730980767852468 -1.0027849796015667 -1.1950726020396836
-9.020545419502005 -0.9935591064640079 -1.1840776345831794
-9.231203551533532 -0.9587404998024297 -1.1425824350051188
-9.212665170791547 -0.9216017543432115 -1.0983222016796534
-9.359579815938712 -0.9034492260996093 -1.0766888609306724
-9.5453364912416 -0.8822620923022245 -1.051439018110865
-9.656252146406084 -0.8658685929675893 -1.0319020063836226
-9.94547887196003 -0.8479178657765233 -1.0105091627639908
-10.236310153040542 -0.8226448968615031 -0.9803900112639938
-10.625564520047291 -0.7959802594069916 -0.9486123337823573
-11.074295085967309 -0.7663883460518506 -0.9133460647296313
-11.348947024456859 -0.7294748708127933 -0.8693542979983473
-12.04220674469509 -0.7067738369788251 -0.8423002593711126
-12.265000037621032 -0.6575187811071422 -0.7836003695826059
-12.43994477626327 -0.6251797190559127 -0.745060176201926
-12.58549522489827 -0.5988105805541444 -0.7136346606588291
-12.683292392487632 -0.5752636175120858 -0.6855724828587725
-12.737974414515378 -0.5627885416971637 -0.6707052664384541
-12.782409110023263 -0.5523850092724443 -0.6583068192956242
-12.78767773927856 -0.5373343779161077 -0.6403701753058989
-12.59793131192172 -0.5255594558123169 -0.6263373695861891
-12.56418226687265 -0.5114994403476893 -0.6095812956442891
-12.247715376185157 -0.5074069595502223 -0.6047040669512849
-11.5803928100352 -0.5823086339224302 -0.6939684064756856
-10.83401190935202 -0.6336048176934085 -0.7551008177711221
-8.712167246065274 -0.7637025293972034 -0.910145233082406
-6.659582725597034 -0.81728210647225 -0.9739988865512716
-5.317824233796351 -0.8512067563649569 -1.014428709938406
-4.075820960843925 -0.888008262818579 -1.0582870374673894
-2.973756619355858 -0.9139053584123489 -1.0891499941790204
-1.5583215478244483 -0.9591447314916475 -1.1430641795729846
-0.001160876646616874 -0.000208094060856192 -0.000247996844622886
0.017425016972704918 -0.03157183189512596 -0.03762584408579698
0.002244914640634205 -0.06719425540993323 -0.0800789952864812
-0.23178625919908336 -0.143796508502396 -0.17137000561023502
-0.7585441641585414 -0.2482437948531783 -0.29584543435549654
-1.5694490439409878 -0.39305293066942726 -0.46842224220497486
-2.661038866926308 -0.5528472962361507 -0.6588577514454308
-3.8765837407692127 -0.7229751348469291 -0.8616082143101146
-5.238298452805092 -0.9043478422276782 -1.0777597899296618
-6.4812977430158005 -1.0629443853309184 -1.2667677899459715
-7.498890179758072 -1.1843846471199304 -1.4114946582186088
-8.1671092237439 -1.244139942401186 -1.482708246046573
-8.525027388151344 -1.2628647425672688 -1.5050235939151109
-8.235360763735756 -1.19117642819268 -1.4195887877121711
-8.295969877488892 -1.145842516523883 -1.3655619356145337
-8.370732273107 -1.1063745807966172 -1.318525881419287
-8.363264801164208 -1.0570364948264537 -1.2597270402126224
-8.556025072943925 -1.0288509186173531 -1.2261367785060888
-8.702515721428552 -1.0088081564760392 -1.2022507447186666
-8.730980767852468 -1.0027849796015667 -1.1950726020396836
-9.020545419502005 -0.9935591064640079 -1.1840776345831794
-9.231203551533532 -0.9587404998024297 -1.1425824350051188
-9.212665170791547 -0.9216017543432115 -1.0983222016796534
-9.359579815938712 -0.9034492260996093 -1.0766888609306724
-9.5453364912416 -0.8822620923022245 -1.051439018110865
-9.656252146406084 -0.8658685929675893 -1.0319020063836226
-9.94547887196003 -0.8479178657765233 -1.0105091627639908
-10.236310153040542 -0.8226448968615031 -0.9803900112639938
-10.625564520047291 -0.7959802594069916 -0.9486123337823573
-11.074295085967309 -0.7663883460518506 -0.9133460647296313
-11.348947024456859 -0.7294748708127933 -0.8693542979983473
-12.04220674469509 -0.7067738369788251 -0.8423002593711126
-12.265000037621032 -0.6575187811071422 -0.7836003695826059
-12.43994477626327 -0.6251797190559127 -0.745060176201926
-12.58549522489827 -0.5988105805541444 -0.7136346606588291
-12.683292392487632 -0.5752636175120858 -0.6855724828587725
-12.737974414515378 -0.5627885416971637 -0.6707052664384541
-12.782409110023263 -0.5523850092724443 -0.6583068192956242
-12.78767773927856 -0.5373343779161077 -0.6403701753058989
-12.59793131192172 -0.5255594558123169 -0.6263373695861891
-12.56418226687265 -0.5114994403476893 -0.6095812956442891
-12.247715376185157 -0.5074069595502223 -0.6047040669512849
-11.5803928100352 -0.5823086339224302 -0.6939684064756856
-10.83401190935202 -0.6336048176934085 -0.7551008177711221
-8.712167246065274 -0.7637025293972034 -0.910145233082406
-6.659582725597034 -0.81728210647225 -0.9739988865512716
-5.317824233796351 -0.8512067563649569 -1.014428709938406
-4.075820960843925 -0.888008262818579 -1.0582870374673894
-2.973756619355858 -0.9139053584123489 -1.0891499941790204
-1.5583215478244483 -0.9591447314916475 -1.1430641795729846

VECTORS D float
-7.517984172444682e-5 0.00011368109269962147 0.00012180306594374208
0.016347821900718984 -0.033551672916102386 -0.03628028734564665
0.027421986251129373 -0.06572996039080381 -0.07180432274246314
0.03979988292700199 -0.10233974811735563 -0.11353275783250295
0.04625624376615487 -0.1241305793914389 -0.14015536559676015
0.05382937963727173 -0.14944821510811993 -0.17191289752543396
0.05465292433343348 -0.15523444623194446 -0.1816922967573307
0.05665602318646456 -0.16500294553916378 -0.1966727119048985
0.05848048333639139 -0.1738491941393747 -0.21080985644288586
0.062084327295813875 -0.1891925407630621 -0.2330827385837384
0.06711842908019228 -0.21085464780050844 -0.26355505708026106
0.06999496363627981 -0.2280936155901575 -0.28880157585431004
0.07356075123415641 -0.2500072743350114 -0.32010326744340306
0.0727606174488799 -0.2589320187157496 -0.33470511528813396
0.06808887596671724 -0.25433931301834756 -0.3314480725487849
0.06387487721208442 -0.2499825345741948 -0.32767406387842607
0.05935430337614718 -0.2437152778015897 -0.32159712434246224
0.05510452515600189 -0.2370894408056217 -0.31464096362488847
0.053384531267728824 -0.24043511391349828 -0.32065087709540807
0.05611456858464923 -0.2644548665948956 -0.3541835556926186
0.0538741935826896 -0.26583522211148164 -0.3573314191831617
0.048439563664543925 -0.2507349441222076 -0.33806702241473024
0.0458942789885883 -0.2500659878305173 -0.337994675782502
0.04469586307914705 -0.25767889761752455 -0.34891398396192275
0.042831413075272835 -0.2630734470155977 -0.35660915063500004
0.04174939525659842 -0.2702173122600992 -0.3667027996859593
0.03967402191413619 -0.27618479591052975 -0.37473638917810603
0.036964973060382024 -0.2794180122540801 -0.3791671642212822
0.033889223758599304 -0.28171686838429666 -0.3815570486941392
0.03058099056102883 -0.2824392251339691 -0.3815840003569389
0.027531958856662448 -0.28559941302591924 -0.3846967252282686
0.02463721997728238 -0.2903639057765764 -0.38977567235119054
0.021155129027668352 -0.28831044465070227 -0.38557068636895486
0.018908709150412175 -0.3003912660162429 -0.40012436709622745
0.01687082810000329 -0.31691019800540854 -0.42040476573358837
0.01481899072084063 -0.33460373723135056 -0.4420581301839662
0.013023416251531222 -0.36051130958236705 -0.47436006497387145
0.011000719495004394 -0.38681708050336316 -0.5070571954283928
0.008840670549655852 -0.4042941909181157 -0.5279735899175784
0.0067836369378424625 -0.4226259567551622 -0.5499622314495953
0.0047575044600337985 -0.4341087361545087 -0.5630473665483765
0.002963287346655884 -0.4524994835501224 -0.5851241601224372
0.0018498584406487653 -0.5395521191158209 -0.6963291561205074
0.0001847468689081178 -0.6030048739695179 -0.7762917317365818
-0.0017315552603783151 -0.7370728902896205 -0.9468059509112178
-0.003648574152606543 -0.7930656166010025 -1.0167714626659048
-0.005388828267649665 -0.8278984635019851 -1.0596553960028225
-0.007018708138708533 -0.8633596544427903 -1.1034528542955944
-0.008432004799099026 -0.8870157957425463 -1.1322968919212346
-0.009885735598905097 -0.9265678233969938 -1.1815657540325895
-7.517984172444682e-5 0.00011368109269962147 0.00012180306594374208
0.016347821900718984 -0.033551672916102386 -0.03628028734564665
0.027421986251129373 -0.06572996039080381 -0.07180432274246314
0.03979988292700199 -0.10233974811735563 -0.11353275783250295
0.04625624376615487 -0.1241305793914389 -0.14015536559676015
0.05382937963727173 -0.14944821510811993 -0.17191289752543396
0.05465292433343348 -0.15523444623194446 -0.1816922967573307
0.05665602318646456 -0.16500294553916378 -0.1966727119048985
0.05848048333639139 -0.1738491941393747 -0.21080985644288586
0.062084327295813875 -0.1891925407630621 -0.2330827385837384
0.06711842908019228 -0.21085464780050844 -0.26355505708026106
0.06999496363627981 -0.2280936155901575 -0.28880157585431004
0.07356075123415641 -0.2500072743350114 -0.32010326744340306
0.0727606174488799 -0.2589320187157496 -0.33470511528813396
0.06808887596671724 -0.25433931301834756 -0.3314480725487849
0.06387487721208442 -0.2499825345741948 -0.32767406387842607
0.05935430337614718 -0.2437152778015897 -0.32159712434246224
0.05510452515600189 -0.2370894408056217 -0.31464096362488847
0.053384531267728824 -0.24043511391349828 -0.32065087709540807
0.05611456858464923 -0.2644548665948956 -0.3541835556926186
0.0538741935826896 -0.26583522211148164 -0.3573314191831617