# vtk DataFile Version 4.0
[MyVLM domain - lattices] 
ASCII
DATASET UNSTRUCTURED_GRID
POINTS 152 float
0.0018916144324157278 0.006910949185701944 -0.007396540001316582
0.0010688609733395774 0.011119962513803143 -0.0080421599817168
0.00045780959861706216 0.015253226863852585 -0.008693746002585035
-0.00013255382275044122 0.0192987980189087 -0.009214775039563552
-0.0007201482309470062 0.023261690870673916 -0.009662567567103866
-0.0011946371146526612 0.02712886843479942 -0.009888110172228773
-0.0014108622120167862 0.03087385088974215 -0.009588737109733203
-0.0013224843579428829 0.034518713464362485 -0.009016769400086846
-0.0010167791708201568 0.03809567795500887 -0.008540503860841214
-0.0006138083932142036 0.041583192567754314 -0.007913602360192364
-0.00020084691410191335 0.04499120883322713 -0.007249811413714764
0.0001698744379422134 0.048332228927422886 -0.006692031546935845
0.0004739400232210948 0.05159983250759133 -0.006166877906418704
0.0007082255455298663 0.05478688978982535 -0.005592856689197498
0.0008836440760600275 0.05789442540772894 -0.00498167951095706
0.001017516815515788 0.06092760254437725 -0.0043923618242954305
0.0011275777072549662 0.06389115017865173 -0.003878956105165721
0.0012277625198140337 0.0667862500469141 -0.0034549696619909876
0.00132638558954348 0.06960995408102483 -0.0030867059217437862
0.0014271324949937316 0.07235791980027637 -0.002724530102813289
0.0015306083418583354 0.07502728061164904 -0.0023356768970539538
0.0016355657532635378 0.07761797144793867 -0.0019194025829187204
0.0017398364473795213 0.08013174751923587 -0.001495769303545728
0.0018410131526058282 0.08257063911204619 -0.00108798333988316
0.001936923789896676 0.08493613839664661 -0.0007131002762412079
0.0020259353317291845 0.08722907882623648 -0.00038064652628049537
0.0021071205190511294 0.08944968081916753 -9.314148328972563e-5
0.002180316672546981 0.09159762615112418 0.00015305217330211713
0.0022461021518325993 0.09367215043696478 0.00036667140564358784
0.0023056987632523672 0.09567215796200279 0.0005602402899107258
0.0023607022647827588 0.09759645189931801 0.0007474386203987047
0.0024126938092907785 0.09944404342698548 0.0009395686834280576
0.0024629658139780817 0.10121434837522096 0.0011433075701861553
0.0025123806343549317 0.10290726179713977 0.0013598548290540214
0.0025613283706516186 0.10452314406199732 0.0015850914205941034
0.0026097549007438213 0.10606274705824503 0.0018104232204809829
0.0026572361369983943 0.10752710320982617 0.002024049569044059
0.002703078927872171 0.10891732215633367 0.0022132872276987734
0.0027464329900004744 0.11023410147801718 0.002370162817706909
0.0027864017842759935 0.11147732116141686 0.002496048099191213
0.0028221433614242725 0.11264600365361017 0.002602116553184721
0.0028529549202113143 0.11373852154653 0.002706969539012796
0.002878337166053322 0.11475287533457947 0.002833461510227218
0.0028980365508205295 0.11568660473185124 0.0030097136634286894
0.0029120651374179955 0.11653667540560124 0.0032704085805860448
0.002920699186668212 0.11729999620951104 0.003650878225794423
0.0029244586304951574 0.11797424277818395 0.004177690217108545
0.002924070395798875 0.11855861661058018 0.004859971463176956
0.0029204190990956736 0.11905432379181942 0.00568393634800022
0.0029144889643634465 0.11946468052396719 0.00661168050852276
0.002907300946956263 0.11979484477967231 0.007584248047592469
0.006212993241944028 0.005638883291334238 0.007143239703864074
0.0072288922610571306 0.009493842766298891 0.010544473782808449
0.007974780507892725 0.013404646767934058 0.012435621179605727
0.008270023946844132 0.017322237365963868 0.013377416603174264
0.008140225139500825 0.021223829832191787 0.013630290688504621
0.007751519283975376 0.025075912032248942 0.013577288884210212
0.007318662739924205 0.02883760839824162 0.013685621069221103
0.0069707766105224795 0.03252140178084732 0.013812607607406035
0.006702226685381192 0.03615306121659466 0.013663707063451257
0.006460614097576536 0.039706333676540424 0.013538992931283387
0.006208498480286784 0.043187481396222784 0.013366887531169038
0.005928720355726676 0.04660608074953549 0.013037932408631783
0.00562110152420414 0.049953417344460745 0.012651733520221862
0.005297776270156929 0.05322055779258457 0.012310399962751935
0.004977662142563614 0.05640710767199073 0.012018439999353855
0.004680078492205027 0.05951710656982753 0.011729680937641018
0.0044193472589770496 0.06255437434210612 0.011400461623616907
0.0042022226504668725 0.06551935350319349 0.011025724094922014
0.004028605706719037 0.06840851849512833 0.010645765663450907
0.003894567528214928 0.07121712300159862 0.010314836972895196
0.003794542923454683 0.07394206364641263 0.010068409775441253
0.0037223892098821663 0.07658318471837933 0.009908263858147092
0.0036720478837599236 0.0791422753503665 0.009813949338756919
0.0036379885391020494 0.08162150406814755 0.009760679854261175
0.003615480687410345 0.08402258652641328 0.009728845381810448
0.003600729157216099 0.08634664696861502 0.009705595759955037
0.0035909263662617956 0.08859424744406065 0.009684506735708814
0.003584242976167935 0.09076544717114868 0.009664901439680075
0.00357976601221264 0.09285988130982732 0.009650950012742271
0.003577378730160166 0.09487686334557122 0.009650499351827449
0.0035774796054096774 0.09681560418017898 0.009672568890649002
0.003580588564800478 0.0986755114792313 0.009723929042600688
0.0035870678637920984 0.10045637790296498 0.009806949712020088
0.0035969747054953923 0.1021584486435119 0.009918828340015767
0.0036100119296844893 0.1037824018807755 0.01005181329482051
0.0036255480079795204 0.10532927073007944 0.010194096014250375
0.0036426825552804717 0.10680032934569544 0.010331112848337348
0.0036603380175139954 0.10819688796928643 0.010447887666345565
0.003677362157174432 0.10951980322336055 0.010534629228202837
0.0036926294639041822 0.11076907324831227 0.010591358789297468
0.0037051326977571345 0.11194379942048224 0.010628347665056815
0.003714058455611533 0.113042396571663 0.01066371441100041
0.003718842962038476 0.11406287402452236 0.010720212573153249
0.003719206248598144 0.11500275079638676 0.010826199913236356
0.003715164522496519 0.1158589466915156 0.011016883229667667
0.0037070218583473346 0.11662830422851865 0.01132835269988219
0.003695343396461056 0.11730841712924409 0.011788112209010488
0.003680913018392471 0.11789839436544935 0.012406346256468312
0.0036646790161518838 0.11839934378681248 0.013170392062491825
0.003647691596346039 0.11881448238218677 0.014043479276230694
0.0036310361855396924 0.11914887237788564 0.014967746386153865
0.005410766489344848 0.00792863623405056 0.004703055059623023
0.005892211109850776 0.011883582247544322 0.006525547362867587
0.006132458642509649 0.015841584660556882 0.007441324038273921
0.006047255650667177 0.019774836310506198 0.0077682224085461535
0.005720055990603616 0.02366122311234944 0.007759007622351481
0.005325630843128663 0.02746791007700166 0.0077889853222914964
0.005016871435172548 0.03118369936142144 0.007986147440007672
0.004834968294868498 0.03482972255146216 0.008108958843955474
0.004732241848104854 0.038407131900271056 0.008144249220396294
0.00464908530328423 0.04190698082740889 0.008194278451681268
0.004547585503985086 0.0453380155247406 0.00815907710734398
0.004411660012619469 0.04870131946462537 0.008026261041650799
0.004242349868979272 0.05198858096356908 0.007890833231663149
0.00405227310746894 0.05519553894891002 0.007801497960770353
0.003859297849485217 0.05832433383469512 0.007733790184466514
0.0036804214720396232 0.061379149432353744 0.00763988871928908
0.003527506244425096 0.06436232297018309 0.007493078923557506
0.003405829147614405 0.06727247751536305 0.007309099211422999
0.003315379723667389 0.07010559979643526 0.007133821485560154
0.003253134023982613 0.0728578450444949 0.007011191655642762
0.003214621311891553 0.07552762464424545 0.006959367677599046
0.0031948391851961662 0.0781157623966765 0.006968933463030948
0.0031888698585714084 0.08062421561085303 0.0070175168669531765
0.0031922930777549615 0.08305488116154693 0.007083436511511312
0.003201436081938149 0.085409114713496 0.0071511970778468424
0.0032135028026517493 0.08768768036042889 0.007212064934677666
0.003226618152360912 0.08989079885198997 0.0072635169020223815
0.0032398057236901635 0.09201822025387713 0.007308409742026593
0.003252904392775423 0.09406931779564541 0.007353907473657935
0.003266372004343082 0.09604325155482143 0.00740961045471735
0.0032809500730880004 0.0979392302880668 0.00748456263794698
0.0032973286136308236 0.09975675749359941 0.007584439064684569
0.0033159342695244357 0.10149576122647393 0.007710062069418467
0.0033368336138182735 0.10315661967899993 0.00785710889426962
0.0033597203855484335 0.10474011361910092 0.008016655321035968
0.0033839603409402744 0.10624733131192447 0.008176262422161027
0.003408672097906746 0.10767950966388821 0.008321792292598947
0.0034328265552422406 0.1090376871515365 0.008441375091131362
0.0034553512046890385 0.11032225650680656 0.00853052187117488
0.003475228953835527 0.11153274285267632 0.008594660501929849
0.0034915839677176984 0.112667889147072 0.00864815904004615
0.0035037495424018335 0.11372590108370821 0.008711526500212624
0.0035113151685979642 0.11470454431614475 0.008810301579103091
0.003514151750190315 0.11560104657514494 0.00897617145909085
0.003512415433327221 0.1164123030469019 0.009244624324378755
0.0035065316976985676 0.11713555038262291 0.009647245396197627
0.0034971622838568268 0.11776916173410555 0.01020262963459024
0.003485158199815951 0.11831326935739814 0.010909265346007198
0.0034715024876191118 0.11877006035284804 0.011742153859086318
0.003457246657122113 0.11914369869798211 0.012653700692908615

CELLS 100 350
4 0 51 52 1
4 1 52 53 2
4 2 53 54 3
4 3 54 55 4
4 4 55 56 5
4 5 56 57 6
4 6 57 58 7
4 7 58 59 8
4 8 59 60 9
4 9 60 61 10
4 10 61 62 11
4 11 62 63 12
4 12 63 64 13
4 13 64 65 14
4 14 65 66 15
4 15 66 67 16
4 16 67 68 17
4 17 68 69 18
4 18 69 70 19
4 19 70 71 20
4 20 71 72 21
4 21 72 73 22
4 22 73 74 23
4 23 74 75 24
4 24 75 76 25
4 25 76 77 26
4 26 77 78 27
4 27 78 79 28
4 28 79 80 29
4 29 80 81 30
4 30 81 82 31
4 31 82 83 32
4 32 83 84 33
4 33 84 85 34
4 34 85 86 35
4 35 86 87 36
4 36 87 88 37
4 37 88 89 38
4 38 89 90 39
4 39 90 91 40
4 40 91 92 41
4 41 92 93 42
4 42 93 94 43
4 43 94 95 44
4 44 95 96 45
4 45 96 97 46
4 46 97 98 47
4 47 98 99 48
4 48 99 100 49
4 49 100 101 50
1 102
1 103
1 104
1 105
1 106
1 107
1 108
1 109
1 110
1 111
1 112
1 113
1 114
1 115
1 116
1 117
1 118
1 119
1 120
1 121
1 122
1 123
1 124
1 125
1 126
1 127
1 128
1 129
1 130
1 131
1 132
1 133
1 134
1 135
1 136
1 137
1 138
1 139
1 140
1 141
1 142
1 143
1 144
1 145
1 146
1 147
1 148
1 149
1 150
1 151

CELL_TYPES 100
9
9
9
9
9
9
9
9
9
9
9
9
9
9
9
9
9
9
9
9
9
9
9
9
9
9
9
9
9
9
9
9
9
9
9
9
9
9
9
9
9
9
9
9
9
9
9
9
9
9
1
1
1
1
1
1
1
1
1
1
1
1
1
1
1
1
1
1
1
1
1
1
1
1
1
1
1
1
1
1
1
1
1
1
1
1
1
1
1
1
1
1
1
1
1
1
1
1
1
1

CELL_DATA 100

VECTORS S float
7.43429136361e-21 -4.754583123118e-20 -1.074678700301e-20
-5.489603215736e-19 -2.63626584116343e-18 -1.5182655458443e-19
1.62069841366717e-18 -4.42857736165088e-18 -1.18750768354271e-18
3.8586511857999996e-22 -1.72394833583e-20 -2.7665073318899998e-21
2.6079877017669998e-20 -3.88353822869864e-18 -6.3491699474572e-19
-6.4823825765999995e-22 2.2539405275383997e-19 3.8090374830739995e-20
5.273335427399999e-22 2.3516036067929e-18 4.1627627742716997e-19
9.00574375201e-21 3.60087848541598e-18 6.654574447777499e-19
-1.0277900249646e-19 -2.3787845937534947e-17 -4.56636058508109e-18
-1.6475801221615e-19 -2.871693224786748e-17 -5.6957494648720995e-18
2.0035262263416e-19 2.800857664873218e-17 5.740005418796889e-18
1.3747256444183e-19 1.646159081942241e-17 3.47169004260271e-18
-1.4989280525285e-19 -1.605709597595192e-17 -3.47105199949548e-18
-1.6068076141841e-19 -1.633552122712403e-17 -3.58298272041166e-18
-1.781751896395e-19 -1.7301835151285148e-17 -3.86764856671176e-18
-3.0696302320684e-19 -2.8994871858959396e-17 -6.58852389566792e-18
-4.2672949542203997e-19 -3.9406158700282976e-17 -9.082744173846019e-18
-9.274564511267899e-19 -8.567711163600392e-17 -1.997863734191089e-17
1.1289678445569e-19 1.030761068918722e-17 2.4303070151597697e-18
7.6178154900643995e-19 6.810716211198437e-17 1.621084919369206e-17
-8.493883105184199e-19 -7.664288957297727e-17 -1.8394359576711058e-17
3.3356479693029997e-19 3.112117115923586e-17 7.522492212662219e-18
-5.1666510470024e-19 -4.9069246944301235e-17 -1.192889727912872e-17
1.2804913354347999e-19 1.2452533787618919e-17 3.03778818383493e-18
-3.712198950756e-20 -3.74196194756539e-18 -9.1532239638531e-19
4.6021139512426e-19 4.851393414422666e-17 1.1876925680336849e-17
2.5952857668049998e-20 2.90687355508935e-18 7.109211157164099e-19
1.2495843763916e-19 1.51021618526775e-17 3.68299387642423e-18
2.1350018282410998e-19 2.833187798351747e-17 6.87786751667578e-18
4.8735803033799997e-20 7.14771316815229e-18 1.7291586657828598e-18
-2.3302960386335e-19 -3.811090813599684e-17 -9.153602026882909e-18
8.42454568941e-21 1.5659578341922999e-18 3.7309477814733e-19
3.945543955843e-20 8.34510039606379e-18 1.97085696765487e-18
-1.1127310237378998e-19 -2.611951493519637e-17 -6.1170503075109695e-18
4.646210555523e-20 1.2019144765543019e-17 2.78717882428305e-18
4.4562085259869995e-20 1.2627487801496519e-17 2.89941829233269e-18
1.4314631562198e-19 4.363465301764966e-17 9.91968398296272e-18
-1.1368996531442e-19 -3.66868895416254e-17 -8.272833819610699e-18
-5.090381401835e-20 -1.772775228741374e-17 -3.96099561782737e-18
3.080836998389e-20 1.135185923227856e-17 2.51470101127711e-18
1.223737204011e-20 4.8975915850182094e-18 1.07633930977915e-18
-1.1914531172669999e-20 -5.13514997227652e-18 -1.12034925022667e-18
4.904155540756e-20 1.728068930996912e-17 3.74530188509856e-18
-7.349225384796e-20 -1.848370983400781e-17 -3.9823444654164495e-18
9.525122739242e-20 1.633188819593086e-17 3.50032972629002e-18
-2.4930583207069997e-19 -3.267239670814708e-17 -6.970441333819719e-18
6.414756883969999e-20 6.69497591297809e-18 1.42267184403407e-18
-2.0316922137924998e-19 -1.604643994073624e-17 -3.39842472308044e-18
-4.6358591209131e-19 -2.6490079241514678e-17 -5.594841754213089e-18
-3.6143891647233e-19 -1.049200266561922e-17 -2.2121626524732e-18
7.43429136361e-21 -4.754583123118e-20 -1.074678700301e-20
-5.489603215736e-19 -2.63626584116343e-18 -1.5182655458443e-19
1.62069841366717e-18 -4.42857736165088e-18 -1.18750768354271e-18
3.8586511857999996e-22 -1.72394833583e-20 -2.7665073318899998e-21
2.6079877017669998e-20 -3.88353822869864e-18 -6.3491699474572e-19
-6.4823825765999995e-22 2.2539405275383997e-19 3.8090374830739995e-20
5.273335427399999e-22 2.3516036067929e-18 4.1627627742716997e-19
9.00574375201e-21 3.60087848541598e-18 6.654574447777499e-19
-1.0277900249646e-19 -2.3787845937534947e-17 -4.56636058508109e-18
-1.6475801221615e-19 -2.871693224786748e-17 -5.6957494648720995e-18
2.0035262263416e-19 2.800857664873218e-17 5.740005418796889e-18
1.3747256444183e-19 1.646159081942241e-17 3.47169004260271e-18
-1.4989280525285e-19 -1.605709597595192e-17 -3.47105199949548e-18
-1.6068076141841e-19 -1.633552122712403e-17 -3.58298272041166e-18
-1.781751896395e-19 -1.7301835151285148e-17 -3.86764856671176e-18
-3.0696302320684e-19 -2.8994871858959396e-17 -6.58852389566792e-18
-4.2672949542203997e-19 -3.9406158700282976e-17 -9.082744173846019e-18
-9.274564511267899e-19 -8.567711163600392e-17 -1.997863734191089e-17
1.1289678445569e-19 1.030761068918722e-17 2.4303070151597697e-18
7.6178154900643995e-19 6.810716211198437e-17 1.621084919369206e-17
-8.493883105184199e-19 -7.664288957297727e-17 -1.8394359576711058e-17
3.3356479693029997e-19 3.112117115923586e-17 7.522492212662219e-18
-5.1666510470024e-19 -4.9069246944301235e-17 -1.192889727912872e-17
1.2804913354347999e-19 1.2452533787618919e-17 3.03778818383493e-18
-3.712198950756e-20 -3.74196194756539e-18 -9.1532239638531e-19
4.6021139512426e-19 4.851393414422666e-17 1.1876925680336849e-17
2.5952857668049998e-20 2.90687355508935e-18 7.109211157164099e-19
1.2495843763916e-19 1.51021618526775e-17 3.68299387642423e-18
2.1350018282410998e-19 2.833187798351747e-17 6.87786751667578e-18
4.8735803033799997e-20 7.14771316815229e-18 1.7291586657828598e-18
-2.3302960386335e-19 -3.811090813599684e-17 -9.153602026882909e-18
8.42454568941e-21 1.5659578341922999e-18 3.7309477814733e-19
3.945543955843e-20 8.34510039606379e-18 1.97085696765487e-18
-1.1127310237378998e-19 -2.611951493519637e-17 -6.1170503075109695e-18
4.646210555523e-20 1.2019144765543019e-17 2.78717882428305e-18
4.4562085259869995e-20 1.2627487801496519e-17 2.89941829233269e-18
1.4314631562198e-19 4.363465301764966e-17 9.91968398296272e-18
-1.1368996531442e-19 -3.66868895416254e-17 -8.272833819610699e-18
-5.090381401835e-20 -1.772775228741374e-17 -3.96099561782737e-18
3.080836998389e-20 1.135185923227856e-17 2.51470101127711e-18
1.223737204011e-20 4.8975915850182094e-18 1.07633930977915e-18
-1.1914531172669999e-20 -5.13514997227652e-18 -1.12034925022667e-18
4.904155540756e-20 1.728068930996912e-17 3.74530188509856e-18
-7.349225384796e-20 -1.848370983400781e-17 -3.9823444654164495e-18
9.525122739242e-20 1.633188819593086e-17 3.50032972629002e-18
-2.4930583207069997e-19 -3.267239670814708e-17 -6.970441333819719e-18
6.414756883969999e-20 6.69497591297809e-18 1.42267184403407e-18
-2.0316922137924998e-19 -1.604643994073624e-17 -3.39842472308044e-18
-4.6358591209131e-19 -2.6490079241514678e-17 -5.594841754213089e-18
-3.6143891647233e-19 -1.049200266561922e-17 -2.2121626524732e-18

SCALARS Gamma float
LOOKUP_TABLE default
9.471774445561476e-5
-0.0010247027597146234
0.000666021767689929
0.013728751263751456
0.05142240110677271
0.09197778560524042
0.1388736786990491
0.1805476637951653
0.2206435020019228
0.25194247891007276
0.26773377151557587
0.2714296175453724
0.26654704847617894
0.24057050422359055
0.22775356526304502
0.2194390578757753
0.20755595611678881
0.20382428160959493
0.19790300262286112
0.19210166168763917
0.19155476773594365
0.18958206192332033
0.18378663952388047
0.18150719779365035
0.18081557198257156
0.18155445966878472
0.18348948447071356
0.18549648943790265
0.18923356157922663
0.1941105213907289
0.19583409297964696
0.20415022335529762
0.20416924608799542
0.20425112738988263
0.2036976605780219
0.20266100434008547
0.20154902302782968
0.19981675475207378
0.19865158821325954
0.19540417109920527
0.1967105031660408
0.2019823732390434
0.1813743484814785
0.13651563684391524
0.10914261994941234
0.08676311047347336
0.07002493830647184
0.05394010288039746
0.039331298649091406
0.02057580032263127
9.471774445561476e-5
-0.0010247027597146234
0.000666021767689929
0.013728751263751456
0.05142240110677271
0.09197778560524042
0.1388736786990491
0.1805476637951653
0.2206435020019228
0.25194247891007276
0.26773377151557587
0.2714296175453724
0.26654704847617894
0.24057050422359055
0.22775356526304502
0.2194390578757753
0.20755595611678881
0.20382428160959493
0.19790300262286112
0.19210166168763917
0.19155476773594365
0.18958206192332033
0.18378663952388047
0.18150719779365035
0.18081557198257156
0.18155445966878472
0.18348948447071356
0.18549648943790265
0.18923356157922663
0.1941105213907289
0.19583409297964696
0.20415022335529762
0.20416924608799542
0.20425112738988263
0.2036976605780219
0.20266100434008547
0.20154902302782968
0.19981675475207378
0.19865158821325954
0.19540417109920527
0.1967105031660408
0.2019823732390434
0.1813743484814785
0.13651563684391524
0.10914261994941234
0.08676311047347336
0.07002493830647184
0.05394010288039746
0.039331298649091406
0.02057580032263127

VECTORS Ftot float
0.000762312285779367 -0.0004228589656214797 0.0023981523639913555
0.029440169567013015 -0.009103960943357525 0.051631128184571225
0.021841727900718536 -0.015350005836266317 0.08705420903023953
-0.1253056565383347 -0.031197454304252328 0.17692955541405364
-0.6865194301856851 -0.0633232809741717 0.35912417214735004
-1.4624300298956099 -0.10114403852816883 0.5736163468674947
-2.543998195314806 -0.1455583879609186 0.825502639335587
-3.7147969947160897 -0.19324661071715102 1.0959559900628768
-5.021935588282718 -0.24470507921884815 1.3877914669419111
-6.268716046510124 -0.28807362636463196 1.633746719913019
-7.214472115714788 -0.3180554238750157 1.803781943053111
-7.8621735797780365 -0.3348988828047703 1.8993059454609023
-8.247758324009753 -0.34074016227037257 1.9324334874974776
-7.907898934440454 -0.31889084788827526 1.808519868071182
-7.923414066023956 -0.30473781962202584 1.7282540561722692
-8.046142868725616 -0.29506805817057535 1.6734141138526197
-7.989742164144615 -0.28166535638365037 1.5974036148746773
-8.211485999354515 -0.27566125040804695 1.5633526378121811
-8.317371889763072 -0.2701902861111862 1.5323252574596182
-8.395803775924424 -0.26840123054809367 1.522179019170366
-8.689124821790875 -0.2666661508833626 1.5123388934121889
-8.907742881762985 -0.25745679647854147 1.4601100492057124
-8.92141727770243 -0.2480445540881444 1.4067305700552206
-9.080983606634476 -0.24348928494356942 1.3808963549721278
-9.311128190662258 -0.23852746595372057 1.3527564811427653
-9.60604936743698 -0.23460732390110534 1.3305242507894501
-9.959659690675705 -0.2297695281928921 1.3030877479424372
-10.313700035260341 -0.22277509257104358 1.2634203323617628
-10.762348401009838 -0.21525830299170887 1.2207905002785915
-11.277214245430358 -0.20670877238064328 1.172303702757792
-11.606065035847955 -0.19595754216198713 1.1113304462802054
-12.32743255270088 -0.18883472656129388 1.0709349516595057
-12.546191911840008 -0.17478220358194527 0.991239133566969
-12.757901595789054 -0.1656102521113382 0.9392224119413014
-12.91889535211014 -0.15846926515987303 0.8987238624693311
-13.038164042617025 -0.1522584820994191 0.8635007614129907
-13.143352977192519 -0.14905107178615504 0.8453106336153224
-13.19095099278582 -0.14658638476796132 0.8313326989379932
-13.268932190724575 -0.14261296267139736 0.8087983024400835
-13.195431043823868 -0.13971443166843628 0.7923599162593927
-13.419176924462478 -0.13609407341933763 0.7718278443407773
-13.908545707228646 -0.13597963030845459 0.7711788052066458
-12.597643277663002 -0.15601318310216522 0.8847947289479642
-9.557903852373762 -0.17127105138472715 0.971326399944976
-7.698436594103931 -0.20835123510266843 1.1816185717326129
-6.1618337653718305 -0.22396769490465163 1.2701839162943875
-5.004261268283061 -0.23373517066886126 1.325578024019504
-3.877512714870019 -0.24412613756514984 1.3845081256666725
-2.8436719307986915 -0.2515887826640922 1.4268308891425618
-1.5003883820182935 -0.26404714535083235 1.497485774950072
0.000762312285779367 -0.0004228589656214797 0.0023981523639913555
0.029440169567013015 -0.009103960943357525 0.051631128184571225
0.021841727900718536 -0.015350005836266317 0.08705420903023953
-0.1253056565383347 -0.031197454304252328 0.17692955541405364
-0.6865194301856851 -0.0633232809741717 0.35912417214735004
-1.4624300298956099 -0.10114403852816883 0.5736163468674947
-2.543998195314806 -0.1455583879609186 0.825502639335587
-3.7147969947160897 -0.19324661071715102 1.0959559900628768
-5.021935588282718 -0.24470507921884815 1.3877914669419111
-6.268716046510124 -0.28807362636463196 1.633746719913019
-7.214472115714788 -0.3180554238750157 1.803781943053111
-7.8621735797780365 -0.3348988828047703 1.8993059454609023
-8.247758324009753 -0.34074016227037257 1.9324334874974776
-7.907898934440454 -0.31889084788827526 1.808519868071182
-7.923414066023956 -0.30473781962202584 1.7282540561722692
-8.046142868725616 -0.29506805817057535 1.6734141138526197
-7.989742164144615 -0.28166535638365037 1.5974036148746773
-8.211485999354515 -0.27566125040804695 1.5633526378121811
-8.317371889763072 -0.2701902861111862 1.5323252574596182
-8.395803775924424 -0.26840123054809367 1.522179019170366
-8.689124821790875 -0.2666661508833626 1.5123388934121889
-8.907742881762985 -0.25745679647854147 1.4601100492057124
-8.92141727770243 -0.2480445540881444 1.4067305700552206
-9.080983606634476 -0.24348928494356942 1.3808963549721278
-9.311128190662258 -0.23852746595372057 1.3527564811427653
-9.60604936743698 -0.23460732390110534 1.3305242507894501
-9.959659690675705 -0.2297695281928921 1.3030877479424372
-10.313700035260341 -0.22277509257104358 1.2634203323617628
-10.762348401009838 -0.21525830299170887 1.2207905002785915
-11.277214245430358 -0.20670877238064328 1.172303702757792
-11.606065035847955 -0.19595754216198713 1.1113304462802054
-12.32743255270088 -0.18883472656129388 1.0709349516595057
-12.546191911840008 -0.17478220358194527 0.991239133566969
-12.757901595789054 -0.1656102521113382 0.9392224119413014
-12.91889535211014 -0.15846926515987303 0.8987238624693311
-13.038164042617025 -0.1522584820994191 0.8635007614129907
-13.143352977192519 -0.14905107178615504 0.8453106336153224
-13.19095099278582 -0.14658638476796132 0.8313326989379932
-13.268932190724575 -0.14261296267139736 0.8087983024400835
-13.195431043823868 -0.13971443166843628 0.7923599162593927
-13.419176924462478 -0.13609407341933763 0.7718278443407773
-13.908545707228646 -0.13597963030845459 0.7711788052066458
-12.597643277663002 -0.15601318310216522 0.8847947289479642
-9.557903852373762 -0.17127105138472715 0.971326399944976
-7.698436594103931 -0.20835123510266843 1.1816185717326129
-6.1618337653718305 -0.22396769490465163 1.2701839162943875
-5.004261268283061 -0.23373517066886126 1.325578024019504
-3.877512714870019 -0.24412613756514984 1.3845081256666725
-2.8436719307986915 -0.2515887826640922 1.4268308891425618
-1.5003883820182935 -0.26404714535083235 1.497485774950072

VECTORS D float
0.0012138465621235688 -0.0002988244339018689 0.002161757287000531
0.022024612851930817 -0.00774249996363083 0.054803651761535996
0.028212404261850864 -0.012563920094104735 0.08535868217110021
0.03846241889663107 -0.02004982230725369 0.13030505275590065
0.04510828812019539 -0.026643298320415516 0.16481947567731853
0.050837655559275635 -0.03359293884797096 0.19964633002199483
0.0521163129342113 -0.038048750362167094 0.2148767555493219
0.05705725499028491 -0.04542362347016342 0.2450210854882978
0.061937078235112436 -0.05276768926701361 0.273492162604305
0.06616110236578125 -0.06087818396401416 0.3050229163467963
0.07035741349809337 -0.06973415852182972 0.33781470402929326
0.07411087445740094 -0.07903317620239081 0.3718141827173777
0.0768859415547212 -0.08810822546402872 0.40426867223151364
0.0754210362175513 -0.09241197077596021 0.4179420102122664
0.0698155843921873 -0.09188173526008711 0.40781451693171145
0.0651911809390442 -0.09178136136536874 0.40087545733557467
0.06121038705543798 -0.09182662944489207 0.39552082349508244
0.05721735380060201 -0.09117119482729688 0.38832568510727866
0.05577120152844371 -0.09411410745526866 0.39657343071450984
0.05736134637002369 -0.10236414280307245 0.4273702364554812
0.055337689445821264 -0.104387030589804 0.43238909398448705
0.04965448766375303 -0.0990855774770363 0.4077234166912995
0.047028709188821814 -0.09948124383016542 0.4071769178002709
0.04575656645748523 -0.10273623630408395 0.4192087426888886
0.04382047498254684 -0.10518550340604246 0.4282353949999896
0.04214164025973768 -0.10870481992204054 0.4423959998756273
0.03983505673509007 -0.11117829634887597 0.4531408743910428
0.03687834477727699 -0.11229670306365755 0.45922279036896163
0.03356493312852797 -0.11260824716934174 0.4628232503260941
0.029987929768893983 -0.1122807474446395 0.4632825819016073
0.02669085554137718 -0.11260123058687871 0.4681343347480408
0.02362219497715308 -0.1135810350381631 0.47619027598036673
0.020061851287162025 -0.11136549104724194 0.4711476629327332
0.017672404229395353 -0.11552607603456946 0.49296939759378494
0.015553312237318496 -0.12111065882639352 0.522005939760274
0.013404803109532022 -0.12698689470272365 0.5528447282230159
0.011397635435215131 -0.1358246974496499 0.5973004810536038
0.009353328903566088 -0.14402289504175889 0.6385585371847932
0.007085284331524163 -0.14887366427434334 0.6662049214350533
0.004927976244945009 -0.15411801623118385 0.6956589251183223
0.002838390308926308 -0.1568981282366793 0.7138903235602615
0.0009620705247910908 -0.16305698892871984 0.7473657249184997
-0.0009005928204130976 -0.1927980430791732 0.8895750865237025
-0.0029296577954870296 -0.2133957281663019 0.9905120113673115
-0.005532500681989678 -0.25847839036026393 1.2061626989590353
-0.007696608246963708 -0.2763431017049612 1.29557223471225
-0.00952931127938076 -0.28669546077258073 1.3495947743926011
-0.011214292285387471 -0.29723717068160715 1.4041437416931606
-0.01260676001595761 -0.304028701449213 1.4405391722394747
-0.01407673385510965 -0.3158879330245598 1.5005157559511322
0.0012138465621235688 -0.0002988244339018689 0.002161757287000531
0.022024612851930817 -0.00774249996363083 0.054803651761535996
0.028212404261850864 -0.012563920094104735 0.08535868217110021
0.03846241889663107 -0.02004982230725369 0.13030505275590065
0.04510828812019539 -0.026643298320415516 0.16481947567731853
0.050837655559275635 -0.03359293884797096 0.19964633002199483
0.0521163129342113 -0.038048750362167094 0.2148767555493219
0.05705725499028491 -0.04542362347016342 0.2450210854882978
0.061937078235112436 -0.05276768926701361 0.273492162604305
0.06616110236578125 -0.06087818396401416 0.3050229163467963
0.07035741349809337 -0.06973415852182972 0.33781470402929326
0.07411087445740094 -0.07903317620239081 0.3718141827173777
0.0768859415547212 -0.08810822546402872 0.40426867223151364
0.0754210362175513 -0.09241197077596021 0.4179420102122664
0.0698155843921873 -0.09188173526008711 0.40781451693171145
0.0651911809390442 -0.09178136136536874 0.40087545733557467
0.06121038705543798 -0.09182662944489207 0.39552082349508244
0.05721735380060201 -0.09117119482729688 0.38832568510727866
0.05577120152844371 -0.09411410745526866 0.39657343071450984
0.05736134637002369 -0.10236414280307245 0.4273702364554812
0.055337689445821264 -0.104387030589804 0.43238909398448705
0.04965448766375303 -0.0990855774770363 0.4077234166912995
0.047028709188821814 -0.09948124383016542 0.4071769178002709
0.04575656645748523 -0.10273623630408395 0.4192087426888886