# vtk DataFile Version 4.0
[MyVLM domain - lattices] 
ASCII
DATASET UNSTRUCTURED_GRID
POINTS 152 float
0.0018916144324157278 -0.00034336455860308883 -0.010116922625893827
0.0010688609733395774 0.0021763350415912484 -0.013549666758509223
0.00045780959861706216 0.004638253398065474 -0.01693306690274804
-0.00013255382275044122 0.007130481030335681 -0.02016214086550348
-0.0007201482309470062 0.009616032306146084 -0.023280966406890743
-0.0011946371146526612 0.012191057080261348 -0.026174956592066635
-0.0014108622120167862 0.01505084829217114 -0.028611370358786057
-0.0013224843579428829 0.01803259758128886 -0.030784235155682467
-0.0010167791708201568 0.020898664021134408 -0.03297676041063594
-0.0006138083932142036 0.023807995555538655 -0.03499951934055058
-0.00020084691410191335 0.026687198046793034 -0.0369399796727159
0.0001698744379422134 0.029444065937688023 -0.038908027711193525
0.0004739400232210948 0.032125950287829 -0.04084723266058559
0.0007082255455298663 0.03478543439936866 -0.04269492818164115
0.0008836440760600275 0.037414961434807235 -0.04446012016259921
0.001017516815515788 0.039976452089182817 -0.04618818975195162
0.0011275777072549662 0.04243502938324417 -0.04792070171501986
0.0012277625198140337 0.04478197782140476 -0.049668042774980437
0.00132638558954348 0.04703903987998214 -0.05140430125757001
0.0014271324949937316 0.04923824205208057 -0.05309130947457339
0.0015306083418583354 0.05140072592191434 -0.054703871867050065
0.0016355657532635378 0.05352697137057133 -0.056241416534989486
0.0017398364473795213 0.05560403344155096 -0.05771937067680727
0.0018410131526058282 0.057616938445584465 -0.05915557924048381
0.001936923789896676 0.05955468138707052 -0.06056315746906348
0.0020259353317291845 0.0614111154147184 -0.06194943089465514
0.0021071205190511294 0.06318461490776037 -0.06331633685664893
0.002180316672546981 0.06487752682166607 -0.06466107836243225
0.0022461021518325993 0.06649548861970063 -0.06597693694490579
0.0023056987632523672 0.0680465813737711 -0.06725428195759227
0.0023607022647827588 0.06953963187475769 -0.06848259404074916
0.0024126938092907785 0.07098193284327199 -0.06965318206838778
0.0024629658139780817 0.07237779262535543 -0.07076091155363513
0.0025123806343549317 0.07372798522114875 -0.07180486007904283
0.0025613283706516186 0.07502985284947791 -0.07278819506487333
0.0026097549007438213 0.07627785021217674 -0.07371752514013821
0.0026572361369983943 0.07746436301674105 -0.07460192466528438
0.002703078927872171 0.07858120749284113 -0.07545114667800325
0.0027464329900004744 0.07962323887402713 -0.07627132247219448
0.0027864017842759935 0.08059134227885273 -0.07706139720464185
0.0028221433614242725 0.08149272731722539 -0.07781277879683694
0.0028529549202113143 0.0823393963851833 -0.07851116335018149
0.002878337166053322 0.08314609615784671 -0.07913897646162217
0.0028980365508205295 0.08393097163917829 -0.07967459375749877
0.0029120651374179955 0.08471640152081754 -0.08009134535165238
0.002920699186668212 0.0855251835036454 -0.08036206200215527
0.0029244586304951574 0.08637446015601435 -0.08046631399158705
0.002924070395798875 0.08727012055142108 -0.08039708299545102
0.0029204190990956736 0.08820326961827632 -0.08016496974727005
0.0029144889643634465 0.08914944983339528 -0.0797991215881656
0.002907300946956263 0.09007062031954786 -0.07934487387024201
0.006212993241944028 0.009038325847865118 0.0010637406206212275
0.0072288922610571306 0.014169229515436236 0.0007429083162987038
0.007974780507892725 0.018271828693382525 -0.0006852045646503718
0.008270023946844132 0.021707933501657773 -0.002789409511934134
0.008140225139500825 0.024645584972477264 -0.0053694430217067785
0.007751519283975376 0.02733194048259392 -0.008130754402286855
0.007318662739924205 0.03006846391439404 -0.010714072988803097
0.0069707766105224795 0.032763092237994576 -0.013229115227863724
0.006702226685381192 0.03522577466761878 -0.015902374826193534
0.006460614097576536 0.037650131510884095 -0.018503104086590262
0.006208498480286784 0.03998997777428384 -0.021086344140989397
0.005928720355726676 0.04217468616131902 -0.023736265323728873
0.00562110152420414 0.04426852671362314 -0.026376273581795735
0.005297776270156929 0.04633738460644679 -0.028927850020886436
0.004977662142563614 0.04838416876481026 -0.031387527919157436
0.004680078492205027 0.050379086584287094 -0.033790812719966715
0.0044193472589770496 0.052293966012900574 -0.03617127856746827
0.0042022226504668725 0.054125543436076964 -0.03853281488605517
0.004028605706719037 0.055899820410378595 -0.04084443422728127
0.003894567528214928 0.05765180178139366 -0.043064419440658606
0.003794542923454683 0.05940437544728397 -0.045165493791325895
0.0037223892098821663 0.06115868980310823 -0.047146288675346246
0.0036720478837599236 0.06290154970643215 -0.049022529451120476
0.0036379885391020494 0.06461696193117028 -0.050813276103293115
0.003615480687410345 0.0662922732482526 -0.05253360816306627
0.003600729157216099 0.06791919218154684 -0.054193407026908495
0.0035909263662617956 0.06949357352707941 -0.05579761275654731
0.003584242976167935 0.0710149805396446 -0.057346745844650694
0.00357976601221264 0.0724861039732579 -0.05883759957545392
0.003577378730160166 0.07391200698287494 -0.06026413991584873
0.0035774796054096774 0.07529850929454772 -0.06161943118640476
0.003580588564800478 0.07664997946981374 -0.0628982671382152
0.0035870678637920984 0.07796794667274834 -0.0640988253844996
0.0035969747054953923 0.07925060257197385 -0.06522326101067394
0.0036100119296844893 0.08049294548171099 -0.06627753479373465
0.0036255480079795204 0.08168735601041452 -0.06727072717092916
0.0036426825552804717 0.08282443706555909 -0.06821403716103452
0.0036603380175139954 0.08389452540431024 -0.06911898096841482
0.003677362157174432 0.08489130329800114 -0.06999308776890574
0.0036926294639041822 0.08581478446152133 -0.07083634121773844
0.0037051326977571345 0.0866715963887779 -0.07164084297523923
0.003714058455611533 0.08747342995005525 -0.07239266040474614
0.003718842962038476 0.08823496671060291 -0.07307429669812812
0.003719206248598144 0.08897450431636063 -0.07366394557010046
0.003715164522496519 0.08971475970593801 -0.07413453402746242
0.0037070218583473346 0.09047901981203112 -0.074458309784513
0.003695343396461056 0.09128503132272613 -0.07461412316196879
0.003680913018392471 0.09213936571451038 -0.0745941425791174
0.0036646790161518838 0.0930338524179641 -0.0744081053414184
0.003647691596346039 0.09394476562328753 -0.0740842867679378
0.0036310361855396924 0.0948347705978615 -0.07366718066040306
0.005410766489344848 0.008931954571611528 -0.002280830321705407
0.005892211109850776 0.013017220383264128 -0.0037887028007890324
0.006132458642509649 0.016463502626690257 -0.005939881249750629
0.006047255650667177 0.01947588359486086 -0.008489958109164619
0.005720055990603616 0.022217458218952622 -0.011244564408867286
0.005325630843128663 0.024930389820424545 -0.013915101140515317
0.005016871435172548 0.02769726429132823 -0.016403146270558625
0.004834968294868498 0.030362232789907916 -0.01889443321606127
0.004732241848104854 0.03291679726402271 -0.021399089561192238
0.00464908530328423 0.035426940182229444 -0.023838480462000686
0.004547585503985086 0.0378281569739112 -0.02628947947225803
0.004411660012619469 0.04011245685629294 -0.028761609636044117
0.004242349868979272 0.042341139830925925 -0.031181816456284154
0.00405227310746894 0.04454563199349338 -0.0335126477705465
0.003859297849485217 0.046710147446410256 -0.03577291647899041
0.0036804214720396232 0.04880382990799875 -0.037999395666159556
0.003527506244425096 0.05080944194394769 -0.04021262810632133
0.003405829147614405 0.052737138655094204 -0.042400511421569975
0.003315379723667389 0.05461651856342244 -0.04452777146699538
0.003253134023982613 0.05647593745750349 -0.04656061512969712
0.003214621311891553 0.05832711163045779 -0.048485079475257
0.0031948391851961662 0.06016396541759293 -0.05030840519889962
0.0031888698585714084 0.06197206334999285 -0.052047795822566495
0.0031922930777549615 0.06373741567136545 -0.05371992368857819
0.003201436081938149 0.0654500241363984 -0.055336704241705365
0.0032135028026517493 0.06710425343104469 -0.05690485338770893
0.003226618152360912 0.06869847549119981 -0.058426311377834404
0.0032398057236901635 0.07023453362250928 -0.05989888144595649
0.003252904392775423 0.07171705035773379 -0.061317054672050765
0.003266372004343082 0.0731522202600996 -0.06267344866313775
0.0032809500730880004 0.07454587887638926 -0.06396110888537461
0.0032973286136308236 0.07590168798703921 -0.06517567139877092
0.0033159342695244357 0.07722017819758385 -0.06631650385227482
0.0033368336138182735 0.07849856027896014 -0.06738693031964274
0.0033597203855484335 0.0797310759422539 -0.06839381326237537
0.0033839603409402744 0.08090969905710484 -0.0693467178501642
0.003408672097906746 0.08202530723989877 -0.07025651571645446
0.0034328265552422406 0.08307024155922531 -0.07113233442026994
0.0034553512046890385 0.0840416055539309 -0.07197762582959612
0.003475228953835527 0.08494290151837199 -0.07278821607255148
0.0034915839677176984 0.08578340033986352 -0.07355305653587182
0.0035037495424018335 0.08657633531562556 -0.07425637639005331
0.0035113151685979642 0.08733818510973945 -0.07487853712797583
0.003514151750190315 0.08808939565336148 -0.07539517223772998
0.003512415433327221 0.08885286544729629 -0.07577899234871674
0.0035065316976985676 0.08964897463299144 -0.07600570935414847
0.0034971622838568268 0.09048972147739312 -0.07606102427628708
0.003485158199815951 0.09137413057089011 -0.07594609956304106
0.0034715024876191118 0.0922860716969283 -0.07568015845793803
0.003457246657122113 0.09319483485204877 -0.07529979971792877

CELLS 100 350
4 0 51 52 1
4 1 52 53 2
4 2 53 54 3
4 3 54 55 4
4 4 55 56 5
4 5 56 57 6
4 6 57 58 7
4 7 58 59 8
4 8 59 60 9
4 9 60 61 10
4 10 61 62 11
4 11 62 63 12
4 12 63 64 13
4 13 64 65 14
4 14 65 66 15
4 15 66 67 16
4 16 67 68 17
4 17 68 69 18
4 18 69 70 19
4 19 70 71 20
4 20 71 72 21
4 21 72 73 22
4 22 73 74 23
4 23 74 75 24
4 24 75 76 25
4 25 76 77 26
4 26 77 78 27
4 27 78 79 28
4 28 79 80 29
4 29 80 81 30
4 30 81 82 31
4 31 82 83 32
4 32 83 84 33
4 33 84 85 34
4 34 85 86 35
4 35 86 87 36
4 36 87 88 37
4 37 88 89 38
4 38 89 90 39
4 39 90 91 40
4 40 91 92 41
4 41 92 93 42
4 42 93 94 43
4 43 94 95 44
4 44 95 96 45
4 45 96 97 46
4 46 97 98 47
4 47 98 99 48
4 48 99 100 49
4 49 100 101 50
1 102
1 103
1 104
1 105
1 106
1 107
1 108
1 109
1 110
1 111
1 112
1 113
1 114
1 115
1 116
1 117
1 118
1 119
1 120
1 121
1 122
1 123
1 124
1 125
1 126
1 127
1 128
1 129
1 130
1 131
1 132
1 133
1 134
1 135
1 136
1 137
1 138
1 139
1 140
1 141
1 142
1 143
1 144
1 145
1 146
1 147
1 148
1 149
1 150
1 151

CELL_TYPES 100
9
9
9
9
9
9
9
9
9
9
9
9
9
9
9
9
9
9
9
9
9
9
9
9
9
9
9
9
9
9
9
9
9
9
9
9
9
9
9
9
9
9
9
9
9
9
9
9
9
9
1
1
1
1
1
1
1
1
1
1
1
1
1
1
1
1
1
1
1
1
1
1
1
1
1
1
1
1
1
1
1
1
1
1
1
1
1
1
1
1
1
1
1
1
1
1
1
1
1
1

CELL_DATA 100

VECTORS S float
-8.80759176691572e-18 8.038016017577739e-18 6.8865470912987595e-18
-1.503459866283389e-17 7.694399130646581e-17 -3.573850836048122e-17
-2.4262308325811e-19 -1.2345829442862849e-17 8.119313775532519e-18
-9.0250728545e-22 2.5125830939949997e-20 -1.563985859831e-20
2.2965750114429998e-20 -8.9456539525514e-19 5.6273278888821e-19
1.6343991111739998e-19 5.15358859167545e-18 -3.3636350087293697e-18
-6.634953173034799e-19 -2.9254182383457677e-17 1.89016591954853e-17
-4.4475037123171e-19 -2.30981743386569e-17 1.483399626756398e-17
1.13640170432416e-18 6.50118910735978e-17 -4.1538673854206915e-17
1.5366764095866e-19 9.26639160252675e-18 -5.89199496114457e-18
3.198649887064e-19 2.008021346821926e-17 -1.2718603127249379e-17
-1.45045538354835e-18 -9.160409651495038e-17 5.773420708814694e-17
8.6279758701973e-19 5.463617069133228e-17 -3.421244524106229e-17
-1.47356764820853e-18 -9.161711327981591e-17 5.706306825418004e-17
-1.7591921220447998e-19 -1.093957294326369e-17 6.7753269796197396e-18
3.1785191214517697e-18 1.9875444867600663e-16 -1.2238565374106832e-16
3.12797899727716e-18 1.9324102840721859e-16 -1.1830426126401844e-16
8.555124473788599e-19 5.2926304532633395e-17 -3.2182375898478056e-17
-1.0298981561853899e-18 -6.338296335314983e-17 3.832575088067512e-17
-6.765968350732e-20 -4.19623849036608e-18 2.52321859501758e-18
2.641768162652e-19 1.6542884813303588e-17 -9.89343894268285e-18
-1.3200271496178199e-18 -8.549508959839888e-17 5.086202113863265e-17
3.1637700645747598e-18 2.1090346315227171e-16 -1.2493050036910252e-16
1.0567101108548999e-19 7.1970306040897e-18 -4.24679343128016e-18
2.22865174881325e-18 1.5669296733541953e-16 -9.217633706932555e-17
4.768328891719e-20 3.49474086221005e-18 -2.05502959885644e-18
-4.4496645069875e-19 -3.410190168616294e-17 2.00206248024026e-17
1.36144361090717e-18 1.0988022227809638e-16 -6.447850474117814e-17
2.7881922011173e-19 2.396205786729624e-17 -1.4068461672651008e-17
4.1171018879071e-19 3.798768936232676e-17 -2.233344401129924e-17
-4.38800543831e-19 -4.339746389501825e-17 2.55662040924185e-17
1.71415813719778e-18 1.8552877999102878e-16 -1.0957765961018797e-16
9.1595845667334e-19 1.0725987064026567e-16 -6.353798882354184e-17
7.250608729140399e-19 9.115458348198929e-17 -5.4172737139494394e-17
8.4988822238544e-19 1.1412296266947415e-16 -6.805449372294914e-17
-1.9460371652743e-19 -2.781600839262577e-17 1.664560876536472e-17
3.8992027730196996e-19 5.765699791890377e-17 -3.4605367734845536e-17
2.5612464769406e-19 3.9163469365946677e-17 -2.3598128546646747e-17
7.787435703039e-20 1.236430883767789e-17 -7.47884236896597e-18
5.1972282597899994e-21 8.3201583303424e-19 -5.047784759998e-19
-1.7091527776271e-19 -2.828894704423944e-17 1.722686136670538e-17
1.2491509792159999e-20 2.084160167155e-18 -1.27359455847685e-18
8.804761890221999e-20 1.210935752748682e-17 -7.42391207947282e-18
-2.4592606507135998e-19 -2.776173265528095e-17 1.7070634802638818e-17
2.0124943529976999e-19 1.7051043370984698e-17 -1.051310759946099e-17
3.690988878482e-19 2.5338800470030558e-17 -1.5660714138968758e-17
1.74562082253492e-18 1.0083372582323559e-16 -6.245242567799075e-17
-8.5472809926053e-19 -3.895928487512466e-17 2.4174607853260498e-17
-2.1432450627589998e-20 -7.440843852912899e-19 4.6245095912384e-19
-3.52160889849162e-18 -6.456421949215429e-17 4.018613938213688e-17
-8.80759176691572e-18 8.038016017577739e-18 6.8865470912987595e-18
-1.503459866283389e-17 7.694399130646581e-17 -3.573850836048122e-17
-2.4262308325811e-19 -1.2345829442862849e-17 8.119313775532519e-18
-9.0250728545e-22 2.5125830939949997e-20 -1.563985859831e-20
2.2965750114429998e-20 -8.9456539525514e-19 5.6273278888821e-19
1.6343991111739998e-19 5.15358859167545e-18 -3.3636350087293697e-18
-6.634953173034799e-19 -2.9254182383457677e-17 1.89016591954853e-17
-4.4475037123171e-19 -2.30981743386569e-17 1.483399626756398e-17
1.13640170432416e-18 6.50118910735978e-17 -4.1538673854206915e-17
1.5366764095866e-19 9.26639160252675e-18 -5.89199496114457e-18
3.198649887064e-19 2.008021346821926e-17 -1.2718603127249379e-17
-1.45045538354835e-18 -9.160409651495038e-17 5.773420708814694e-17
8.6279758701973e-19 5.463617069133228e-17 -3.421244524106229e-17
-1.47356764820853e-18 -9.161711327981591e-17 5.706306825418004e-17
-1.7591921220447998e-19 -1.093957294326369e-17 6.7753269796197396e-18
3.1785191214517697e-18 1.9875444867600663e-16 -1.2238565374106832e-16
3.12797899727716e-18 1.9324102840721859e-16 -1.1830426126401844e-16
8.555124473788599e-19 5.2926304532633395e-17 -3.2182375898478056e-17
-1.0298981561853899e-18 -6.338296335314983e-17 3.832575088067512e-17
-6.765968350732e-20 -4.19623849036608e-18 2.52321859501758e-18
2.641768162652e-19 1.6542884813303588e-17 -9.89343894268285e-18
-1.3200271496178199e-18 -8.549508959839888e-17 5.086202113863265e-17
3.1637700645747598e-18 2.1090346315227171e-16 -1.2493050036910252e-16
1.0567101108548999e-19 7.1970306040897e-18 -4.24679343128016e-18
2.22865174881325e-18 1.5669296733541953e-16 -9.217633706932555e-17
4.768328891719e-20 3.49474086221005e-18 -2.05502959885644e-18
-4.4496645069875e-19 -3.410190168616294e-17 2.00206248024026e-17
1.36144361090717e-18 1.0988022227809638e-16 -6.447850474117814e-17
2.7881922011173e-19 2.396205786729624e-17 -1.4068461672651008e-17
4.1171018879071e-19 3.798768936232676e-17 -2.233344401129924e-17
-4.38800543831e-19 -4.339746389501825e-17 2.55662040924185e-17
1.71415813719778e-18 1.8552877999102878e-16 -1.0957765961018797e-16
9.1595845667334e-19 1.0725987064026567e-16 -6.353798882354184e-17
7.250608729140399e-19 9.115458348198929e-17 -5.4172737139494394e-17
8.4988822238544e-19 1.1412296266947415e-16 -6.805449372294914e-17
-1.9460371652743e-19 -2.781600839262577e-17 1.664560876536472e-17
3.8992027730196996e-19 5.765699791890377e-17 -3.4605367734845536e-17
2.5612464769406e-19 3.9163469365946677e-17 -2.3598128546646747e-17
7.787435703039e-20 1.236430883767789e-17 -7.47884236896597e-18
5.1972282597899994e-21 8.3201583303424e-19 -5.047784759998e-19
-1.7091527776271e-19 -2.828894704423944e-17 1.722686136670538e-17
1.2491509792159999e-20 2.084160167155e-18 -1.27359455847685e-18
8.804761890221999e-20 1.210935752748682e-17 -7.42391207947282e-18
-2.4592606507135998e-19 -2.776173265528095e-17 1.7070634802638818e-17
2.0124943529976999e-19 1.7051043370984698e-17 -1.051310759946099e-17
3.690988878482e-19 2.5338800470030558e-17 -1.5660714138968758e-17
1.74562082253492e-18 1.0083372582323559e-16 -6.245242567799075e-17
-8.5472809926053e-19 -3.895928487512466e-17 2.4174607853260498e-17
-2.1432450627589998e-20 -7.440843852912899e-19 4.6245095912384e-19
-3.52160889849162e-18 -6.456421949215429e-17 4.018613938213688e-17

SCALARS Gamma float
LOOKUP_TABLE default
-0.00013262123406654414
-0.004132264182307337
0.023490531111901625
-0.004149317041360593
-0.008928563015251124
0.02234399060544641
0.06929158079915461
0.11986918777025085
0.16738168397773703
0.20189250501527942
0.21721684814721867
0.22836980615410413
0.2339478298944236
0.21004128323465696
0.19375189466647638
0.18701517020102118
0.17614140338335818
0.1763804347712728
0.17128616539448466
0.17132879838564744
0.17228975600683766
0.17177809548149742
0.17083008863209562
0.17079434225615306
0.17160142537148168
0.1720821523160404
0.17387514776633922
0.17395332764873195
0.17530558710160424
0.17722768941412267
0.17702817089033251
0.1841839210488685
0.1830190388954862
0.18172173981483072
0.1802478541019156
0.17814009757271917
0.1746421122149276
0.17089122204845272
0.16671127781284412
0.15907030548546494
0.1539183977825427
0.14406940563837084
0.12974530668855347
0.11061393984354687
0.09503134811878473
0.07922501984665106
0.0674553719298249
0.054135773228366095
0.0414092667661724
0.02253701616877138
-0.00013262123406654414
-0.004132264182307337
0.023490531111901625
-0.004149317041360593
-0.008928563015251124
0.02234399060544641
0.06929158079915461
0.11986918777025085
0.16738168397773703
0.20189250501527942
0.21721684814721867
0.22836980615410413
0.2339478298944236
0.21004128323465696
0.19375189466647638
0.18701517020102118
0.17614140338335818
0.1763804347712728
0.17128616539448466
0.17132879838564744
0.17228975600683766
0.17177809548149742
0.17083008863209562
0.17079434225615306
0.17160142537148168
0.1720821523160404
0.17387514776633922
0.17395332764873195
0.17530558710160424
0.17722768941412267
0.17702817089033251
0.1841839210488685
0.1830190388954862
0.18172173981483072
0.1802478541019156
0.17814009757271917
0.1746421122149276
0.17089122204845272
0.16671127781284412
0.15907030548546494
0.1539183977825427
0.14406940563837084
0.12974530668855347
0.11061393984354687
0.09503134811878473
0.07922501984665106
0.0674553719298249
0.054135773228366095
0.0414092667661724
0.02253701616877138

VECTORS Ftot float
0.16285321504202474 0.0802519257144688 0.11461162774633418
0.23403375988572422 0.1358318585429892 0.19398799803024572
-0.2378536044014476 0.07691963344566621 0.10985262118476162
0.08623059739082783 0.027895833598892944 0.03983937915066842
0.1856078243901024 0.04689370418387364 0.0669711501589531
-0.33275476923415914 0.15546685824574075 0.22202968371811213
-1.2641677353810852 0.3711671950175338 0.5300816897323494
-2.4934812132972946 0.5796958000639568 0.8278914013781101
-3.868968405342275 0.7729083766032772 1.103827557440247
-5.1049658705956 0.9210066077722749 1.315333751086283
-5.943247323479419 0.9921045319886672 1.416872109839425
-6.707742710847579 1.063181207598715 1.5183801224377698
-7.339587468304185 1.0964107809921675 1.5658368714445197
-6.987433596511509 1.0171744307928259 1.4526756358458102
-6.810572739418184 0.9483200373705813 1.354341371124395
-6.92011286823959 0.9176495056608637 1.3105393123974411
-6.83253736449052 0.8800495737259075 1.2568410445508948
-7.153716498095422 0.8786788422774959 1.254883437165067
-7.24058601187748 0.8622761210627509 1.2314579235570824
-7.531030918950445 0.8596921402768857 1.2277676165482891
-7.855704399232711 0.8598375155780466 1.2279752339948715
-8.110119587366386 0.8326915200821688 1.1892067346364035
-8.333462447969566 0.8116297880794977 1.1591274640582525
-8.5880342218198 0.8016974094760888 1.144942557353586
-8.878942961146894 0.7898952033820855 1.1280872602452756
-9.14251857162685 0.7786762519340321 1.1120649370970017
-9.476341669997275 0.7653443358486353 1.0930249877135891
-9.710989725433258 0.7429439093759371 1.0610338632964322
-10.01066421454297 0.7211918419777954 1.0299686915992563
-10.33851163109407 0.6986724894108222 0.9978077231176108
-10.5353051315439 0.6714311253722083 0.9589030233649282
-11.169980831675629 0.6594343302631568 0.9417698243426429
-11.296542091648643 0.6264091511436759 0.8946049806108551
-11.402751130507983 0.5996337757965016 0.8563657816790164
-11.48606211572222 0.5765652803445094 0.8234205558807145
-11.51695474582946 0.5542669041202588 0.7915751743224655
-11.444833022892654 0.5418761109177953 0.7738792877084136
-11.34059493217022 0.5317989966855252 0.7594876771038845
-11.194106214669157 0.5178365500288449 0.7395472367419036
-10.798604457828906 0.5050764561824104 0.7213239341492759
-10.55547705536611 0.48938613544509146 0.6989158338631295
-9.97283733641527 0.4696035708716304 0.6706634036992942
-9.05631191577883 0.5291526959216203 0.7557083679426736
-7.779704350921223 0.5656534563202572 0.8078368561505582
-6.728677157250022 0.6648481037365277 0.9495014941375909
-5.643829584023392 0.7006872797457088 1.0006851419183822
-4.831664857462102 0.7244418097803572 1.034610126638461
-3.8956115422461703 0.7508825402362529 1.0723714031358536
-2.991389874433518 0.7665698854571771 1.094775253944192
-1.631676468951581 0.8011369403710322 1.144142124518359
0.16285321504202474 0.0802519257144688 0.11461162774633418
0.23403375988572422 0.1358318585429892 0.19398799803024572
-0.2378536044014476 0.07691963344566621 0.10985262118476162
0.08623059739082783 0.027895833598892944 0.03983937915066842
0.1856078243901024 0.04689370418387364 0.0669711501589531
-0.33275476923415914 0.15546685824574075 0.22202968371811213
-1.2641677353810852 0.3711671950175338 0.5300816897323494
-2.4934812132972946 0.5796958000639568 0.8278914013781101
-3.868968405342275 0.7729083766032772 1.103827557440247
-5.1049658705956 0.9210066077722749 1.315333751086283
-5.943247323479419 0.9921045319886672 1.416872109839425
-6.707742710847579 1.063181207598715 1.5183801224377698
-7.339587468304185 1.0964107809921675 1.5658368714445197
-6.987433596511509 1.0171744307928259 1.4526756358458102
-6.810572739418184 0.9483200373705813 1.354341371124395
-6.92011286823959 0.9176495056608637 1.3105393123974411
-6.83253736449052 0.8800495737259075 1.2568410445508948
-7.153716498095422 0.8786788422774959 1.254883437165067
-7.24058601187748 0.8622761210627509 1.2314579235570824
-7.531030918950445 0.8596921402768857 1.2277676165482891
-7.855704399232711 0.8598375155780466 1.2279752339948715
-8.110119587366386 0.8326915200821688 1.1892067346364035
-8.333462447969566 0.8116297880794977 1.1591274640582525
-8.5880342218198 0.8016974094760888 1.144942557353586
-8.878942961146894 0.7898952033820855 1.1280872602452756
-9.14251857162685 0.7786762519340321 1.1120649370970017
-9.476341669997275 0.7653443358486353 1.0930249877135891
-9.710989725433258 0.7429439093759371 1.0610338632964322
-10.01066421454297 0.7211918419777954 1.0299686915992563
-10.33851163109407 0.6986724894108222 0.9978077231176108
-10.5353051315439 0.6714311253722083 0.9589030233649282
-11.169980831675629 0.6594343302631568 0.9417698243426429
-11.296542091648643 0.6264091511436759 0.8946049806108551
-11.402751130507983 0.5996337757965016 0.8563657816790164
-11.48606211572222 0.5765652803445094 0.8234205558807145
-11.51695474582946 0.5542669041202588 0.7915751743224655
-11.444833022892654 0.5418761109177953 0.7738792877084136
-11.34059493217022 0.5317989966855252 0.7594876771038845
-11.194106214669157 0.5178365500288449 0.7395472367419036
-10.798604457828906 0.5050764561824104 0.7213239341492759
-10.55547705536611 0.48938613544509146 0.6989158338631295
-9.97283733641527 0.4696035708716304 0.6706634036992942
-9.05631191577883 0.5291526959216203 0.7557083679426736
-7.779704350921223 0.5656534563202572 0.8078368561505582
-6.728677157250022 0.6648481037365277 0.9495014941375909
-5.643829584023392 0.7006872797457088 1.0006851419183822
-4.831664857462102 0.7244418097803572 1.034610126638461
-3.8956115422461703 0.7508825402362529 1.0723714031358536
-2.991389874433518 0.7665698854571771 1.094775253944192
-1.631676468951581 0.8011369403710322 1.144142124518359

VECTORS D float
0.16207679112301246 0.07630843725412634 0.11822147723448288
0.20251082646991908 0.1414902721812589 0.21943157763355042
-0.0025076769938532062 -0.0023107534685438903 -0.0035885530891802196
0.034692652565493615 0.039506335228633505 0.0614659731273615
0.05378173926111088 0.07256563632214341 0.11316129148912836
0.04811475651713487 0.07459256049426145 0.11662479409853381
0.07213219932206198 0.1254198993235201 0.19664495837962948
0.0806887463315706 0.15436018088877823 0.24277508596085187
0.08411803110626448 0.17446052685438454 0.2753482377063155
0.08596063956198648 0.19118734795451897 0.30292391898875387
0.0833745368846084 0.1971208105513566 0.31331243772054457
0.08698962517516945 0.21772437269592412 0.34763825524787056
0.08509604104220218 0.22520409548927758 0.36178969299626357
0.08215028392640603 0.22890368438229133 0.36963572812016854
0.0747254624411389 0.21878769505168136 0.35519903332041564
0.06941852088611569 0.21321750586153995 0.3480683774564699
0.0672073262355963 0.21625780926719046 0.3550176816968654
0.0641986276895956 0.21580001572531166 0.35660574320930544
0.06289218954807012 0.22121318471645798 0.3675314744393787
0.06079711783713986 0.22382106816799263 0.37385587472092474
0.059038318196840266 0.2277226718052938 0.38235304285061955
0.052846958856559795 0.21396960824579114 0.36103776133319604
0.04960163573775015 0.21322563274097442 0.36121645566840005
0.048025330336297654 0.21849285701739213 0.3714743110234048
0.04595258513607411 0.22234087477277342 0.379074118675873
0.04431656975617687 0.22843001803157928 0.3894916542395528
0.042159764935413006 0.233868041025356 0.39929346373787855
0.03956280328474648 0.23732763309622745 0.40527421825309673
0.03675643486209436 0.23956456607848436 0.4087659709808949
0.033878987120233614 0.24101637844876478 0.41057723274962693
0.03120740077552453 0.24345065360427404 0.41378198876144534
0.028623657322307376 0.2460452099529928 0.4170333009748088
0.025850735116539025 0.2461406035783343 0.41588800633833545
0.023706049546420322 0.25151590058328094 0.42353435874327705
0.021829594325634603 0.2598518363713118 0.43602725571240086
0.019977466539954015 0.26896211244432244 0.44968857383337046
0.018789621777928114 0.28427885566079925 0.4738568874459698
0.01752539578851899 0.3014755947161367 0.5005193051949188
0.015924879808636 0.3137777902440163 0.5189152883955738
0.01465550422378534 0.3242220064761841 0.5345592643834053
0.012906563054728043 0.3315220309187261 0.5445341960897229
0.011179805582973535 0.3356196373453967 0.5493308113359939
0.01164013550750993 0.4110977813576574 0.6706915230312358
0.01110513499536763 0.4644729329265693 0.7555257657834412
0.011429708086940564 0.5699826230076561 0.9246646204218164
0.010268642252046638 0.6149975774819355 0.9952988676944364
0.008899267256657477 0.6453690761612798 1.042241394470108
0.007633669445308878 0.6768143273216116 1.0910095029279523
0.006354855056422739 0.696660369694671 1.1212222460099874
0.005344887359004851 0.7334421006738451 1.178837780984642
0.16207679112301246 0.07630843725412634 0.11822147723448288
0.20251082646991908 0.1414902721812589 0.21943157763355042
-0.0025076769938532062 -0.0023107534685438903 -0.0035885530891802196
0.034692652565493615 0.039506335228633505 0.0614659731273615
0.05378173926111088 0.07256563632214341 0.11316129148912836
0.04811475651713487 0.07459256049426145 0.11662479409853381
0.07213219932206198 0.1254198993235201 0.19664495837962948
0.0806887463315706 0.15436018088877823 0.24277508596085187
0.08411803110626448 0.17446052685438454 0.2753482377063155
0.08596063956198648 0.19118734795451897 0.30292391898875387
0.0833745368846084 0.1971208105513566 0.31331243772054457
0.08698962517516945 0.21772437269592412 0.34763825524787056
0.08509604104220218 0.22520409548927758 0.36178969299626357
0.08215028392640603 0.22890368438229133 0.36963572812016854
0.0747254624411389 0.21878769505168136 0.35519903332041564
0.06941852088611569 0.21321750586153995 0.3480683774564699
0.0672073262355963 0.21625780926719046 0.3550176816968654
0.0641986276895956 0.21580001572531166 0.35660574320930544
0.06289218954807012 0.22121318471645798 0.3675314744393787
0.06079711783713986 0.22382106816799263 0.37385587472092474
0.059038318196840266 0.2277226718052938 0.38235304285061955
0.052846958856559795 0.21396960824579114 0.36103776133319604
0.04960163573775015 0.21322563274097442 0.36121645566840005
0.048025330336297654 0.21849285701739213 0.3714743110234048
0.04595258513607411 0.22234087477277342 0.379074118675873
0.04431656975617687 0.22843001803157928 0.3894916542395528
0.042159764935413006 0.233868041025356 0.39929346373787855
0.03956280328474648 0.23732763309622745 0.40527421825309673