# vtk DataFile Version 4.0
[MyVLM domain - lattices] 
ASCII
DATASET UNSTRUCTURED_GRID
POINTS 152 float
0.0018916144324157278 0.003782848468481662 0.009389359941068197
0.0010688609733395774 0.002589172987819276 0.01347687228992915
0.00045780959861706216 0.0014329174775236945 0.01749825410777379
-0.00013255382275044122 0.0001953979017114145 0.021384983134536274
-0.0007201482309470062 -0.0010735551320796225 0.02516582908489251
-0.0011946371146526612 -0.0025034839727397324 0.028766000648839222
-0.0014108622120167862 -0.00435750608586578 0.032033586886785564
-0.0013224843579428829 -0.006416270360621561 0.03509523022161986
-0.0010167791708201568 -0.00835960404288226 0.03813578247912327
-0.0006138083932142036 -0.010401657118059031 0.041031604107571694
-0.00020084691410191335 -0.012443545931914254 0.043839785611357686
0.0001698744379422134 -0.014361042273278002 0.04663205018164114
0.0004739400232210948 -0.016217942052177803 0.04937156523259447
0.0007082255455298663 -0.01808509055995541 0.052017428216190695
0.0008836440760600275 -0.01995230649698952 0.0545755173085069
0.001017516815515788 -0.021768285754491315 0.0570754529505628
0.0011275777072549662 -0.023486038705430555 0.05954436461617345
0.0012277625198140337 -0.025093822994368555 0.06198903175741228
0.00132638558954348 -0.02662093218040391 0.06439254173004823
0.0014271324949937316 -0.0281105154409701 0.06672998234487473
0.0015306083418583354 -0.02959105675542501 0.06898490836874194
0.0016355657532635378 -0.03106320266580939 0.07115694652042857
0.0017398364473795213 -0.03250951247940998 0.07325616618856748
0.0018410131526058282 -0.03390981219924911 0.07529421483574436
0.001936923789896676 -0.03524927483486266 0.07727965282889494
0.0020259353317291845 -0.036519618755909825 0.07921726156952583
0.0021071205190511294 -0.037718653769455115 0.08110830556611788
0.002180316672546981 -0.03884954192004889 0.08295095921139878
0.0022461021518325993 -0.039919878541401575 0.08474083733740621
0.0023056987632523672 -0.04094055123224075 0.08647165398608399
0.0023607022647827588 -0.04192345229574859 0.08813654313298859
0.0024126938092907785 -0.042878407187825596 0.08972983204851095
0.0024629658139780817 -0.04381122052739088 0.09124816943435558
0.0025123806343549317 -0.04472293512201309 0.09269095322529201
0.0025613283706516186 -0.04560997015280318 0.09406025080806976
0.0026097549007438213 -0.04646485445975261 0.0953603756589309
0.0026572361369983943 -0.04727732933432205 0.09659725064601216
0.002703078927872171 -0.04803636881257339 0.09777724161256127
0.0027464329900004744 -0.04873504136941971 0.09890435047645307
0.0027864017842759935 -0.04937453952186242 0.09997788873767578
0.0028221433614242725 -0.0499645767510532 0.10099224831527173
0.0028529549202113143 -0.05052132384142962 0.10193809300249285
0.002878337166053322 -0.05106464893463442 0.10280395192241341
0.0028980365508205295 -0.05161899872837408 0.10357571076753179
0.0029120651374179955 -0.052214523952331636 0.10423596200594921
0.002920699186668212 -0.05288193986581393 0.10476697217443669
0.0029244586304951574 -0.053644342588683364 0.10515540672197433
0.002924070395798875 -0.05450966644819829 0.10539668476258378
0.0029204190990956736 -0.05546592714682607 0.10549772543367152
0.0029144889643634465 -0.056480173152719325 0.10547755331101984
0.002907300946956263 -0.05750115213063228 0.10536575894417946
0.006212993241944028 -0.008857068823023728 0.0020917002902828725
0.0072288922610571306 -0.013568810026695835 0.0041480564469373385
0.007974780507892725 -0.01693554882802692 0.00689321514166345
0.008270023946844132 -0.019444750682953617 0.01004573806225554
0.008140225139500825 -0.021322816661726137 0.01347491248985983
0.007751519283975376 -0.022902740997237554 0.016988484114476905
0.007318662739924205 -0.02459068487949174 0.020351955663723654
0.0069707766105224795 -0.026262612123866283 0.02363693946218108
0.006702226685381192 -0.027662467999355806 0.026991268777722413
0.006460614097576536 -0.02905111644073192 0.030264333747385404
0.006208498480286784 -0.030366332574571973 0.0334920599185909
0.005928720355726676 -0.03151296050171575 0.03672938557533404
0.00562110152420414 -0.03257759101501328 0.03992631750005352
0.005297776270156929 -0.03364899097095017 0.04303160612426225
0.004977662142563614 -0.034731079553604216 0.046042988705977915
0.004680078492205027 -0.03578371729561575 0.048983639777485745
0.0044193472589770496 -0.03676894809403425 0.05187547330504162
0.0042022226504668725 -0.03768237489283933 0.054721027930122526
0.004028605706719037 -0.03855902949442041 0.05750007803218878
0.003894567528214928 -0.039446073799657484 0.06018539467507178
0.003794542923454683 -0.04037434459032523 0.06275917423451301
0.0037223892098821663 -0.041345389094900695 0.06522052341773472
0.0036720478837599236 -0.04234142954607408 0.06757970622347882
0.0036379885391020494 -0.04334091832863041 0.06984916317319008
0.003615480687410345 -0.04432680779316045 0.07203873673184395
0.003600729157216099 -0.04528792686409085 0.07415487652292987
0.0035909263662617956 -0.04621869072321589 0.07620080694274228
0.003584242976167935 -0.0471185109453117 0.07817686771874256
0.00357976601221264 -0.047991012773456444 0.08008096581586367
0.003577378730160166 -0.04884301777786832 0.08190916279870385
0.0035774796054096774 -0.04968236685424624 0.08365693172402061
0.003580588564800478 -0.05051494574962777 0.08532087445417746
0.0035870678637920984 -0.051342814701198274 0.08689980151068083
0.0035969747054953923 -0.05216353735068337 0.08839511952563625
0.0036100119296844893 -0.05297037494506214 0.08981071911991438
0.0036255480079795204 -0.053753061905875844 0.09115252712800177
0.0036426825552804717 -0.05449893756461428 0.09242785319027086
0.0036603380175139954 -0.05519498266942593 0.09364421397528283
0.003677362157174432 -0.055832685367503944 0.09480652380354697
0.0036926294639041822 -0.05641206413686904 0.09591477200677305
0.0037051326977571345 -0.056942048175907235 0.09696380330986928
0.003714058455611533 -0.05743838855154336 0.09794452383010657
0.003718842962038476 -0.05792086568312873 0.09884551333704776
0.003719206248598144 -0.05841413192234914 0.09965253878881089
0.003715164522496519 -0.05894879371779768 0.10034792954406181
0.0037070218583473346 -0.05955622546902263 0.10091357158477565
0.003695343396461056 -0.06026033722420176 0.10133566043820064
0.003680913018392471 -0.061069982709655614 0.10160908440306228
0.0036646790161518838 -0.061974153746983916 0.10174019905412326
0.003647691596346039 -0.06294088463911614 0.10174745979519209
0.0036310361855396924 -0.0639198744368671 0.10165990789282131
0.005410766489344848 -0.007613201886607221 0.005198187805332248
0.005892211109850776 -0.010936373262353164 0.008012367645438164
0.006132458642509649 -0.013439072894213314 0.01121251210675838
0.006047255650667177 -0.015397607408050934 0.014639095484471861
0.005720055990603616 -0.017031714010213802 0.018165252443342744
0.005325630843128663 -0.018667658461099176 0.02160261335877831
0.005016871435172548 -0.020416708432070177 0.024886937810764957
0.004834968294868498 -0.022068889346646258 0.028139454677556703
0.004732241848104854 -0.02361275181015056 0.0313667742702523
0.00464908530328423 -0.025137193761985623 0.03451757133960729
0.004547585503985086 -0.02655530842925693 0.037642021534346704
0.004411660012619469 -0.027856329859455367 0.04074634058004979
0.004242349868979272 -0.02912284732125294 0.04378284554021656
0.00405227310746894 -0.03039720107882601 0.04672709125192726
0.003859297849485217 -0.031658122849892584 0.04959135696368258
0.0036804214720396232 -0.032864040078608985 0.052399644601789794
0.003527506244425096 -0.03399172883255248 0.05516536250988477
0.003405829147614405 -0.03505487104206896 0.05788061142179931
0.003315379723667389 -0.03609334468795096 0.060522367774588096
0.003253134023982613 -0.037145353420792906 0.06306857468029639
0.003214621311891553 -0.03822668255961402 0.06551011848073922
0.0031948391851961662 -0.03932914638351796 0.06785172520407959
0.0031888698585714084 -0.040433296037846574 0.07010462365178982
0.0031922930777549615 -0.04152028317493554 0.07227969592246769
0.003201436081938149 -0.0425766371953158 0.07438471927034279
0.0032135028026517493 -0.043594765660910646 0.07642407719158253
0.003226618152360912 -0.044572475086885846 0.0783990360952464
0.0032398057236901635 -0.045512248952219364 0.08030816214407797
0.003252904392775423 -0.046420315178452076 0.0821478596458991
0.003266372004343082 -0.047305019678041633 0.08391331008590575
0.0032809500730880004 -0.04817422466189953 0.08559997421451172
0.0032973286136308236 -0.04903286363346183 0.08720500367218018
0.0033159342695244357 -0.04988165147563111 0.08872798572107486
0.0033368336138182735 -0.05071683027025659 0.09017108999625172
0.0033597203855484335 -0.05153064189567122 0.09153879565134364
0.0033839603409402744 -0.05231227277569313 0.09283734590747013
0.003408672097906746 -0.05304943235612701 0.09407383671940432
0.0034328265552422406 -0.053731801786597845 0.09525422567818798
0.0034553512046890385 -0.054355478675550135 0.09638076583063612
0.003475228953835527 -0.054925181651405565 0.09745073287535932
0.0034915839677176984 -0.05545340134685433 0.09845691534221153
0.0035037495424018335 -0.05595796693501004 0.09938901955329617
0.0035113151685979642 -0.056461080059930266 0.10023422738344015
0.003514151750190315 -0.05699028745014328 0.1009766347215124
0.003512415433327221 -0.05757644017232581 0.10159842969586227
0.0035065316976985676 -0.05824699631677131 0.10208375937066748
0.0034971622838568268 -0.059018121104806726 0.10242329075104337
0.003485158199815951 -0.059888500370617874 0.10261778257097652
0.0034715024876191118 -0.0608364019322307 0.1026797819115797
0.003457246657122113 -0.06182045031391267 0.10263317691490494

CELLS 100 350
4 0 51 52 1
4 1 52 53 2
4 2 53 54 3
4 3 54 55 4
4 4 55 56 5
4 5 56 57 6
4 6 57 58 7
4 7 58 59 8
4 8 59 60 9
4 9 60 61 10
4 10 61 62 11
4 11 62 63 12
4 12 63 64 13
4 13 64 65 14
4 14 65 66 15
4 15 66 67 16
4 16 67 68 17
4 17 68 69 18
4 18 69 70 19
4 19 70 71 20
4 20 71 72 21
4 21 72 73 22
4 22 73 74 23
4 23 74 75 24
4 24 75 76 25
4 25 76 77 26
4 26 77 78 27
4 27 78 79 28
4 28 79 80 29
4 29 80 81 30
4 30 81 82 31
4 31 82 83 32
4 32 83 84 33
4 33 84 85 34
4 34 85 86 35
4 35 86 87 36
4 36 87 88 37
4 37 88 89 38
4 38 89 90 39
4 39 90 91 40
4 40 91 92 41
4 41 92 93 42
4 42 93 94 43
4 43 94 95 44
4 44 95 96 45
4 45 96 97 46
4 46 97 98 47
4 47 98 99 48
4 48 99 100 49
4 49 100 101 50
1 102
1 103
1 104
1 105
1 106
1 107
1 108
1 109
1 110
1 111
1 112
1 113
1 114
1 115
1 116
1 117
1 118
1 119
1 120
1 121
1 122
1 123
1 124
1 125
1 126
1 127
1 128
1 129
1 130
1 131
1 132
1 133
1 134
1 135
1 136
1 137
1 138
1 139
1 140
1 141
1 142
1 143
1 144
1 145
1 146
1 147
1 148
1 149
1 150
1 151

CELL_TYPES 100
9
9
9
9
9
9
9
9
9
9
9
9
9
9
9
9
9
9
9
9
9
9
9
9
9
9
9
9
9
9
9
9
9
9
9
9
9
9
9
9
9
9
9
9
9
9
9
9
9
9
1
1
1
1
1
1
1
1
1
1
1
1
1
1
1
1
1
1
1
1
1
1
1
1
1
1
1
1
1
1
1
1
1
1
1
1
1
1
1
1
1
1
1
1
1
1
1
1
1
1

CELL_DATA 100

VECTORS S float
9.767827253299999e-22 2.805734534605e-20 -4.3840927776009996e-20
-2.23736671045188e-18 2.67406791000904e-18 -5.681505656454859e-18
2.1256365052114697e-18 6.94136322961084e-18 -9.538157415344619e-18
7.0302753204390995e-19 1.59463975890684e-17 -2.3882248408592307e-17
-2.29322993631e-21 -1.3926079040817999e-19 2.0670919646040998e-19
-3.5922547185703997e-19 -4.992022696389672e-17 7.288797770634972e-17
4.596802606066e-20 3.066592491463573e-17 -4.4041495041134516e-17
9.955267911076e-20 -3.9939483790462576e-17 5.645138902789187e-17
2.5523255107035e-19 -4.536106801856969e-17 6.315255005840013e-17
5.0104297069547e-19 -6.132187320337364e-17 8.419949806974023e-17
-7.236013067341999e-20 7.048350958821699e-18 -9.55751616083953e-18
4.859543883016e-19 -4.077770166108382e-17 5.4685896628432545e-17
-7.167376692706999e-20 5.18370526551522e-18 -6.8659229184536495e-18
1.1730590526095e-19 -8.073492396980669e-18 1.062167960566646e-17
-3.5559728712135997e-19 2.3124405554599208e-17 -3.0150034065241416e-17
-4.9111273931443e-19 3.093708499973564e-17 -4.0031235594531357e-17
1.3382892521376899e-18 -8.271284335496811e-17 1.0633833144266495e-16
-1.51903235009093e-18 9.374696526022952e-17 -1.198559099105322e-16
9.8895206650596e-19 -6.069346738663982e-17 7.722787924261137e-17
-6.0506524582386e-19 3.631788881566656e-17 -4.602507751747299e-17
-4.1909998912645997e-19 2.548045750358803e-17 -3.217733577330988e-17
-5.536479185658e-19 3.486481148888134e-17 -4.3897594746595435e-17
1.9938159586366e-19 -1.279294400960352e-17 1.60704225797129e-17
3.1239141949877e-19 -2.049533441870968e-17 2.566425459381844e-17
-1.9545980136743998e-18 1.322112305992626e-16 -1.6533407981059176e-16
1.1430584965736999e-18 -8.02860310798406e-17 1.0034393648574477e-16
-1.45525465643096e-18 1.0750670167318723e-16 -1.3437177119236526e-16
4.1395242446695997e-19 -3.280691073773276e-17 4.105040089677341e-17
1.2505024154998e-19 -1.0789003593383349e-17 1.352422688568865e-17
7.246696171688e-20 -6.906183644409779e-18 8.67814140763514e-18
9.008875393743e-20 -9.40019046356628e-18 1.183648557523332e-17
4.0347938424427e-19 -4.7501867598304165e-17 6.00253970109873e-17
8.8412767296957e-19 -1.1755988962782152e-16 1.491472667119201e-16
1.3714207795673e-19 -2.0128769581903858e-17 2.5641217903426667e-17
-3.2073999540176e-19 5.1508229395595737e-17 -6.587231546940379e-17
-3.5675875267916997e-19 6.239629177805186e-17 -8.013582017966103e-17
3.4077513004199996e-20 -6.35772844843582e-18 8.19940707626963e-18
-1.306416231392e-20 2.58421184184076e-18 -3.34632348083006e-18
1.0782063308308e-19 -2.288691146377047e-17 2.976141407387556e-17
-6.248666249333e-20 1.365908201806442e-17 -1.7811001443806058e-17
1.0766794412089999e-19 -2.5091523603800998e-17 3.2830981833847497e-17
1.206989619877e-19 -2.876503541531086e-17 3.7756127945454836e-17
1.1407716993976e-19 -2.429144668789082e-17 3.19752851958836e-17
4.1794084298138e-19 -7.40917845305033e-17 9.777799173256546e-17
2.5998691553829998e-20 -2.96361154466908e-18 3.91988689803204e-18
-7.468538877723199e-19 6.382030268808393e-17 -8.458029190212265e-17
-8.661454941997999e-19 5.848198194609415e-17 -7.763813622033986e-17
1.39418321428053e-18 -7.084685950212937e-17 9.419009394988181e-17
-2.64950004435095e-18 9.724999887585821e-17 -1.2944911396776232e-16
1.6308054301484998e-18 -3.032257685969155e-17 4.039562611077413e-17
9.767827253299999e-22 2.805734534605e-20 -4.3840927776009996e-20
-2.23736671045188e-18 2.67406791000904e-18 -5.681505656454859e-18
2.1256365052114697e-18 6.94136322961084e-18 -9.538157415344619e-18
7.0302753204390995e-19 1.59463975890684e-17 -2.3882248408592307e-17
-2.29322993631e-21 -1.3926079040817999e-19 2.0670919646040998e-19
-3.5922547185703997e-19 -4.992022696389672e-17 7.288797770634972e-17
4.596802606066e-20 3.066592491463573e-17 -4.4041495041134516e-17
9.955267911076e-20 -3.9939483790462576e-17 5.645138902789187e-17
2.5523255107035e-19 -4.536106801856969e-17 6.315255005840013e-17
5.0104297069547e-19 -6.132187320337364e-17 8.419949806974023e-17
-7.236013067341999e-20 7.048350958821699e-18 -9.55751616083953e-18
4.859543883016e-19 -4.077770166108382e-17 5.4685896628432545e-17
-7.167376692706999e-20 5.18370526551522e-18 -6.8659229184536495e-18
1.1730590526095e-19 -8.073492396980669e-18 1.062167960566646e-17
-3.5559728712135997e-19 2.3124405554599208e-17 -3.0150034065241416e-17
-4.9111273931443e-19 3.093708499973564e-17 -4.0031235594531357e-17
1.3382892521376899e-18 -8.271284335496811e-17 1.0633833144266495e-16
-1.51903235009093e-18 9.374696526022952e-17 -1.198559099105322e-16
9.8895206650596e-19 -6.069346738663982e-17 7.722787924261137e-17
-6.0506524582386e-19 3.631788881566656e-17 -4.602507751747299e-17
-4.1909998912645997e-19 2.548045750358803e-17 -3.217733577330988e-17
-5.536479185658e-19 3.486481148888134e-17 -4.3897594746595435e-17
1.9938159586366e-19 -1.279294400960352e-17 1.60704225797129e-17
3.1239141949877e-19 -2.049533441870968e-17 2.566425459381844e-17
-1.9545980136743998e-18 1.322112305992626e-16 -1.6533407981059176e-16
1.1430584965736999e-18 -8.02860310798406e-17 1.0034393648574477e-16
-1.45525465643096e-18 1.0750670167318723e-16 -1.3437177119236526e-16
4.1395242446695997e-19 -3.280691073773276e-17 4.105040089677341e-17
1.2505024154998e-19 -1.0789003593383349e-17 1.352422688568865e-17
7.246696171688e-20 -6.906183644409779e-18 8.67814140763514e-18
9.008875393743e-20 -9.40019046356628e-18 1.183648557523332e-17
4.0347938424427e-19 -4.7501867598304165e-17 6.00253970109873e-17
8.8412767296957e-19 -1.1755988962782152e-16 1.491472667119201e-16
1.3714207795673e-19 -2.0128769581903858e-17 2.5641217903426667e-17
-3.2073999540176e-19 5.1508229395595737e-17 -6.587231546940379e-17
-3.5675875267916997e-19 6.239629177805186e-17 -8.013582017966103e-17
3.4077513004199996e-20 -6.35772844843582e-18 8.19940707626963e-18
-1.306416231392e-20 2.58421184184076e-18 -3.34632348083006e-18
1.0782063308308e-19 -2.288691146377047e-17 2.976141407387556e-17
-6.248666249333e-20 1.365908201806442e-17 -1.7811001443806058e-17
1.0766794412089999e-19 -2.5091523603800998e-17 3.2830981833847497e-17
1.206989619877e-19 -2.876503541531086e-17 3.7756127945454836e-17
1.1407716993976e-19 -2.429144668789082e-17 3.19752851958836e-17
4.1794084298138e-19 -7.40917845305033e-17 9.777799173256546e-17
2.5998691553829998e-20 -2.96361154466908e-18 3.91988689803204e-18
-7.468538877723199e-19 6.382030268808393e-17 -8.458029190212265e-17
-8.661454941997999e-19 5.848198194609415e-17 -7.763813622033986e-17
1.39418321428053e-18 -7.084685950212937e-17 9.419009394988181e-17
-2.64950004435095e-18 9.724999887585821e-17 -1.2944911396776232e-16
1.6308054301484998e-18 -3.032257685969155e-17 4.039562611077413e-17

SCALARS Gamma float
LOOKUP_TABLE default
0.00022258001454755636
-0.0007456966028144778
0.0018312871718129018
0.018831481141506262
0.055364147185574246
0.09552407680859175
0.14210614803213267
0.18408164690338252
0.22679562363895273
0.2576171789978274
0.27567113416729266
0.28035176774801945
0.27316446624078466
0.2508598058458764
0.23755891219659828
0.22802721324180653
0.2157138512899211
0.21032049749125295
0.2044141682895494
0.19725452449864284
0.19610679299034178
0.19341256106117843
0.1865319215311817
0.18609187337822874
0.18383537460763927
0.18322045444028778
0.18381907313405466
0.1852604890366353
0.18823259730999892
0.19233399046242175
0.19326936922820703
0.20141335937764107
0.20130653003478513
0.20095073801515437
0.2004524445013618
0.1992282547704279
0.19756754948886934
0.19563732534146266
0.19362520056799312
0.18795317968760433
0.1860971686272028
0.18084576988635512
0.17792216109981135
0.1551108739724843
0.11653936385356549
0.09072118610690577
0.07262298156930411
0.0556305952211481
0.04047622470925123
0.021113634818675255
0.00022258001454755636
-0.0007456966028144778
0.0018312871718129018
0.018831481141506262
0.055364147185574246
0.09552407680859175
0.14210614803213267
0.18408164690338252
0.22679562363895273
0.2576171789978274
0.27567113416729266
0.28035176774801945
0.27316446624078466
0.2508598058458764
0.23755891219659828
0.22802721324180653
0.2157138512899211
0.21032049749125295
0.2044141682895494
0.19725452449864284
0.19610679299034178
0.19341256106117843
0.1865319215311817
0.18609187337822874
0.18383537460763927
0.18322045444028778
0.18381907313405466
0.1852604890366353
0.18823259730999892
0.19233399046242175
0.19326936922820703
0.20141335937764107
0.20130653003478513
0.20095073801515437
0.2004524445013618
0.1992282547704279
0.19756754948886934
0.19563732534146266
0.19362520056799312
0.18795317968760433
0.1860971686272028
0.18084576988635512
0.17792216109981135
0.1551108739724843
0.11653936385356549
0.09072118610690577
0.07262298156930411
0.0556305952211481
0.04047622470925123
0.021113634818675255

VECTORS Ftot float
-0.0010781333913987947 -0.0003988414519023411 -0.0002792717911725275
0.024591160556627134 -0.04218748122231164 -0.029539992369943494
0.009619332621227869 -0.07784266037334345 -0.054506017587713895
-0.1849760435173763 -0.1675528406715403 -0.11732176208666416
-0.7405367770094823 -0.30997654178664596 -0.2170479112271888
-1.5190189508433753 -0.48873971252965803 -0.34221923093571666
-2.6000854671846185 -0.693831842822425 -0.4858262865942015
-3.7813223473467814 -0.9141445996296788 -0.6400909396744048
-5.153698831358539 -1.1526628907325747 -0.8071032451055521
-6.398868607470098 -1.3557916124475502 -0.9493355072772819
-7.4153086546084515 -1.5067776390080097 -1.055057061239248
-8.107007555585472 -1.584585674519916 -1.1095388342379742
-8.43429052710705 -1.6071849963548444 -1.1253630497452185
-8.232695447937733 -1.5181970854230469 -1.063053043701239
-8.251215876139431 -1.457490627408597 -1.0205459241815096
-8.347602641242776 -1.4102985908990615 -0.9875017044740645
-8.291311306894418 -1.3443482766241666 -0.9413227972714832
-8.461068570281 -1.3084289454227032 -0.916171810796767
-8.578132796379293 -1.2818766011372706 -0.8975796591709676
-8.606366226585124 -1.2729625641028175 -0.8913379832435627
-8.879790915366879 -1.26168436817173 -0.8834409054352091
-9.070584146605334 -1.216729321756631 -0.8519630430547892
-9.036868761250942 -1.1697527334039741 -0.819069681770884
-9.29538547866534 -1.1500056599116808 -0.805242632053999
-9.452331833597603 -1.1236051706147638 -0.7867568104358728
-9.680627977276208 -1.1038534470734276 -0.7729265047195948
-9.962520246792256 -1.080442927247365 -0.7565342822639778
-10.286510916909982 -1.0479966139445238 -0.7338151291022141
-10.69253097220722 -1.013542364278657 -0.7096900037628145
-11.162381119700477 -0.9749545880691748 -0.6826705519781855
-11.443974279950282 -0.926972585593447 -0.6490731921462836
-12.153389026734345 -0.8961936414967291 -0.6275215434716264
-12.363339582562336 -0.8327667422804238 -0.5831095505151013
-12.546184347746273 -0.7912321065643619 -0.5540266854899203
-12.709435684518487 -0.7571455480770019 -0.5301590202854443
-12.815221214096804 -0.7274849988687455 -0.509390480142383
-12.88075925299647 -0.7120611184106576 -0.4985905627771842
-12.916695948828702 -0.6999260517233453 -0.49009349760605064
-12.935161756891148 -0.6810795984294233 -0.47689706894112904
-12.693079044926225 -0.6678104470220779 -0.46760590910005967
-12.696489181735929 -0.6500191028643673 -0.4551482758059474
-12.454769559841703 -0.6457628295076626 -0.45216800111690164
-12.359688086410564 -0.741259721366033 -0.5190356446717307
-10.860821790403971 -0.8066933678596643 -0.5648527771991212
-8.220074421664377 -0.9763976762248298 -0.6836810131830763
-6.44221263933572 -1.0467409444835614 -0.7329358998801484
-5.188771756927091 -1.0910516506104688 -0.7639625903336046
-3.9974378224893985 -1.1387169874557919 -0.7973382185040052
-2.924447073067453 -1.1724333031101974 -0.8209466368858783
-1.537032667558626 -1.2303817080986434 -0.8615225468860176
-0.0010781333913987947 -0.0003988414519023411 -0.0002792717911725275
0.024591160556627134 -0.04218748122231164 -0.029539992369943494
0.009619332621227869 -0.07784266037334345 -0.054506017587713895
-0.1849760435173763 -0.1675528406715403 -0.11732176208666416
-0.7405367770094823 -0.30997654178664596 -0.2170479112271888
-1.5190189508433753 -0.48873971252965803 -0.34221923093571666
-2.6000854671846185 -0.693831842822425 -0.4858262865942015
-3.7813223473467814 -0.9141445996296788 -0.6400909396744048
-5.153698831358539 -1.1526628907325747 -0.8071032451055521
-6.398868607470098 -1.3557916124475502 -0.9493355072772819
-7.4153086546084515 -1.5067776390080097 -1.055057061239248
-8.107007555585472 -1.584585674519916 -1.1095388342379742
-8.43429052710705 -1.6071849963548444 -1.1253630497452185
-8.232695447937733 -1.5181970854230469 -1.063053043701239
-8.251215876139431 -1.457490627408597 -1.0205459241815096
-8.347602641242776 -1.4102985908990615 -0.9875017044740645
-8.291311306894418 -1.3443482766241666 -0.9413227972714832
-8.461068570281 -1.3084289454227032 -0.916171810796767
-8.578132796379293 -1.2818766011372706 -0.8975796591709676
-8.606366226585124 -1.2729625641028175 -0.8913379832435627
-8.879790915366879 -1.26168436817173 -0.8834409054352091
-9.070584146605334 -1.216729321756631 -0.8519630430547892
-9.036868761250942 -1.1697527334039741 -0.819069681770884
-9.29538547866534 -1.1500056599116808 -0.805242632053999
-9.452331833597603 -1.1236051706147638 -0.7867568104358728
-9.680627977276208 -1.1038534470734276 -0.7729265047195948
-9.962520246792256 -1.080442927247365 -0.7565342822639778
-10.286510916909982 -1.0479966139445238 -0.7338151291022141
-10.69253097220722 -1.013542364278657 -0.7096900037628145
-11.162381119700477 -0.9749545880691748 -0.6826705519781855
-11.443974279950282 -0.926972585593447 -0.6490731921462836
-12.153389026734345 -0.8961936414967291 -0.6275215434716264
-12.363339582562336 -0.8327667422804238 -0.5831095505151013
-12.546184347746273 -0.7912321065643619 -0.5540266854899203
-12.709435684518487 -0.7571455480770019 -0.5301590202854443
-12.815221214096804 -0.7274849988687455 -0.509390480142383
-12.88075925299647 -0.7120611184106576 -0.4985905627771842
-12.916695948828702 -0.6999260517233453 -0.49009349760605064
-12.935161756891148 -0.6810795984294233 -0.47689706894112904
-12.693079044926225 -0.6678104470220779 -0.46760590910005967
-12.696489181735929 -0.6500191028643673 -0.4551482758059474
-12.454769559841703 -0.6457628295076626 -0.45216800111690164
-12.359688086410564 -0.741259721366033 -0.5190356446717307
-10.860821790403971 -0.8066933678596643 -0.5648527771991212
-8.220074421664377 -0.9763976762248298 -0.6836810131830763
-6.44221263933572 -1.0467409444835614 -0.7329358998801484
-5.188771756927091 -1.0910516506104688 -0.7639625903336046
-3.9974378224893985 -1.1387169874557919 -0.7973382185040052
-2.924447073067453 -1.1724333031101974 -0.8209466368858783
-1.537032667558626 -1.2303817080986434 -0.8615225468860176

VECTORS D float
-1.7947539265163228e-5 3.084318064193593e-5 1.9339164737957683e-5
0.019185671420696316 -0.045004497978296226 -0.028737182760465635
0.027131071157377278 -0.0752694882639572 -0.04873080225345101
0.039206160281588694 -0.11944940819347481 -0.07860335059796991
0.04530530773909318 -0.14595535117051614 -0.0978280716417084
0.052057700090272094 -0.1762387646791358 -0.12044755468604136
0.05295574673609017 -0.18579760850845908 -0.12931489349700684
0.05657386513414983 -0.20488507203482922 -0.1450564146302703
0.05960202164386824 -0.2226867434435981 -0.16019180354327298
0.06353243993418128 -0.2455020517039178 -0.17917539313239306
0.06804009450864956 -0.27309077181833324 -0.20191051325946957
0.07080112400237903 -0.29665657815329705 -0.22183744447067152
0.07444740230630181 -0.32522696457892486 -0.24632036721400133
0.07281221858904126 -0.3366413665443609 -0.2566837748585673
0.06827682146166986 -0.3310943113983165 -0.2547472473649747
0.0641184045663861 -0.3261479971602466 -0.2528415005338945
0.059769171932899726 -0.3187302827939542 -0.2486692807276692
0.055679230959817166 -0.3110130755258409 -0.24396886696435463
0.05409923103959574 -0.3162790074014002 -0.24925676266023267
0.056501238009440784 -0.34560477751387997 -0.27345576581809594
0.05438281729624128 -0.3481892515848813 -0.2764310050097493
0.048902589439281455 -0.3282200244612368 -0.2612991477730608
0.046401112861200994 -0.32736105780657476 -0.2611731701862434
0.04487048211677336 -0.3380052841827065 -0.270475359525524
0.043133791467171084 -0.3448319804664193 -0.2762586501397403
0.04168167840882135 -0.3557902760405111 -0.2851456177505554
0.039600736881730186 -0.3634347882602393 -0.29120182139952333
0.036779045990770205 -0.3681586915532711 -0.2945981973909702
0.033644839441246584 -0.3710339583933322 -0.29630484903447385
0.03026023743465319 -0.37170869365460496 -0.2960635517888189
0.02717500498457493 -0.37554031855231407 -0.29844996312664174
0.024202431059125926 -0.38191450873345517 -0.3023956277438099
0.020744615051714745 -0.3786022563603145 -0.29854238257546567
0.018476582803070917 -0.39492184028527727 -0.31011883573050797
0.016370313922963394 -0.4173062283098446 -0.32638833775917514
0.014288592978477328 -0.44106228464015634 -0.34348869860691966
0.012440917441060635 -0.4754068469711935 -0.3686768522378471
0.010460082662858307 -0.5091554064099444 -0.39323815833642567
0.008290968511386996 -0.5315611391209418 -0.4088074120374412
0.006455661755368071 -0.5529345420310595 -0.42406271633912096
0.004402140719218201 -0.5677580512042866 -0.43393123558046914
0.002581925068776092 -0.5921998504317019 -0.4511840125898326
0.0010301420799778346 -0.7086240681549719 -0.5383414466386669
-0.0007998415694099196 -0.7913217826906964 -0.599624799937735
-0.0029794709291224367 -0.9663015673949465 -0.7305478685763861
-0.005005295342427917 -1.0391696917841178 -0.784064284460043
-0.006788731327999692 -1.0839764950898851 -0.8164443000910117
-0.008436192083664175 -1.1293867251846985 -0.8493647016415915
-0.009829587148629158 -1.1595842032230999 -0.8709485566382521
-0.011267986800019997 -1.2099080471555237 -0.9077506004837523
-1.7947539265163228e-5 3.084318064193593e-5 1.9339164737957683e-5
0.019185671420696316 -0.045004497978296226 -0.028737182760465635
0.027131071157377278 -0.0752694882639572 -0.04873080225345101
0.039206160281588694 -0.11944940819347481 -0.07860335059796991
0.04530530773909318 -0.14595535117051614 -0.0978280716417084
0.052057700090272094 -0.1762387646791358 -0.12044755468604136
0.05295574673609017 -0.18579760850845908 -0.12931489349700684
0.05657386513414983 -0.20488507203482922 -0.1450564146302703
0.05960202164386824 -0.2226867434435981 -0.16019180354327298
0.06353243993418128 -0.2455020517039178 -0.17917539313239306
0.06804009450864956 -0.27309077181833324 -0.20191051325946957
0.07080112400237903 -0.29665657815329705 -0.22183744447067152
0.07444740230630181 -0.32522696457892486 -0.24632036721400133
0.07281221858904126 -0.3366413665443609 -0.2566837748585673
0.06827682146166986 -0.3310943113983165 -0.2547472473649747
0.0641184045663861 -0.3261479971602466 -0.2528415005338945
0.059769171932899726 -0.3187302827939542 -0.2486692807276692
0.055679230959817166 -0.3110130755258409 -0.24396886696435463
0.05409923103959574 -0.3162790074014002 -0.24925676266023267
0.056501238009440784 -0.34560477751387997 -0.27345576581809594
0.05438281729624128 -0.3481892515848813 -0.2764310050097493