# vtk DataFile Version 4.0
[MyVLM domain - lattices] 
ASCII
DATASET UNSTRUCTURED_GRID
POINTS 152 float
0.0018916144324157278 -0.009314157889594972 -0.003964402281066009
0.0010688609733395774 -0.011360409562745793 -0.007698766008041758
0.00045780959861706216 -0.013386359803769685 -0.011359908473294244
-0.00013255382275044122 -0.015259633771320042 -0.014983299408660486
-0.0007201482309470062 -0.017035810286237733 -0.0185540465139799
-0.0011946371146526612 -0.018570403632694434 -0.02211086462012652
-0.0014108622120167862 -0.01956994441099689 -0.025732388615751403
-0.0013224843579428829 -0.020279086995088413 -0.02935306355893169
-0.0010167791708201568 -0.021054937690086376 -0.03287720310359912
-0.0006138083932142036 -0.021658643223668603 -0.03636880779118196
-0.00020084691410191335 -0.022200493981092338 -0.0397983254020176
0.0001698744379422134 -0.022819048527728016 -0.04312862928041063
0.0004739400232210948 -0.02344315177177589 -0.046378785375746134
0.0007082255455298663 -0.023993786058235374 -0.04956996640486934
0.0008836440760600275 -0.02448230715127509 -0.052699129599941816
0.001017516815515788 -0.02496593734882914 -0.05575094229244309
0.0011275777072549662 -0.025497086769720675 -0.058711361233359245
0.0012277625198140337 -0.026088852309641343 -0.06157687712006636
0.00132638558954348 -0.026708561248883846 -0.06435624458142455
0.0014271324949937316 -0.0273080869335602 -0.0670623591154775
0.0015306083418583354 -0.027855659612832817 -0.0697037334013059
0.0016355657532635378 -0.028350558162757503 -0.0722805606634882
0.0017398364473795213 -0.02881223514840507 -0.074787628602923
0.0018410131526058282 -0.02926319173962005 -0.07721890804932167
0.001936923789896676 -0.029719965295413896 -0.07956996783069217
0.0020259353317291845 -0.03019179277418876 -0.08183833291149012
0.0021071205190511294 -0.03068111701874314 -0.08402334873396042
0.002180316672546981 -0.031184411226651 -0.08612596030196498
0.0022461021518325993 -0.03169320390393755 -0.08814843754547305
0.0023056987632523672 -0.03219535151214387 -0.09009403431580795
0.0023607022647827588 -0.03267758991060214 -0.09196630472874992
0.0024126938092907785 -0.033128960227242446 -0.09376818520522004
0.0024629658139780817 -0.03354298825091437 -0.09550141050486768
0.0025123806343549317 -0.03391851088090744 -0.09716629227958895
0.0025613283706516186 -0.03425952200173024 -0.0987617603712551
0.0026097549007438213 -0.0345743546095894 -0.10028558196026205
0.0026572361369983943 -0.034874450807082846 -0.10173469114445895
0.002703078927872171 -0.035172108459008776 -0.1031057927209045
0.0027464329900004744 -0.03547505867702716 -0.1043968151444728
0.0027864017842759935 -0.03578197138125245 -0.1056081148089951
0.0028221433614242725 -0.03608201259121874 -0.106742594670788
0.0028529549202113143 -0.03635714614049102 -0.10780508750608236
0.002878337166053322 -0.03658521199652378 -0.10880153107770296
0.0028980365508205295 -0.036738943411045014 -0.10973923148882953
0.0029120651374179955 -0.03678471161478878 -0.11062719954102934
0.002920699186668212 -0.036688258187510134 -0.11147461475034096
0.0029244586304951574 -0.03642382275478508 -0.11228837958828802
0.002924070395798875 -0.03598255572446593 -0.11307086529593986
0.0029204190990956736 -0.03537782384358582 -0.11381849026422351
0.0029144889643634465 -0.03464637977030943 -0.11452140664806408
0.002907300946956263 -0.03384538805668702 -0.11516429725190395
0.006212993241944028 0.004783837966726971 -0.007741948885664833
0.0072288922610571306 0.006661478740134425 -0.012527716424882467
0.007974780507892725 0.007101002248565416 -0.01684948059026153
0.008270023946844132 0.006646105560553245 -0.020852924572242686
0.008140225139500825 0.005549306258028552 -0.024605710252978915
0.007751519283975376 0.004182011147478968 -0.028207355786332
0.007318662739924205 0.002997234172082858 -0.031779245892536626
0.0069707766105224795 0.0018566309442534423 -0.03528431130466153
0.006702226685381192 0.000474609521143825 -0.03864602789225605
0.006460614097576536 -0.0008578741845878299 -0.04194235705715002
0.006208498480286784 -0.0022102230010962614 -0.045154702367586924
0.005928720355726676 -0.003688569543107275 -0.04825462567516038
0.00562110152420414 -0.005196334330657369 -0.051268005373532016
0.005297776270156929 -0.006634510800170844 -0.054221370191457355
0.004977662142563614 -0.007998727669809816 -0.05711589141037472
0.004680078492205027 -0.009333754698067229 -0.059939573009650596
0.0044193472589770496 -0.010681926416869025 -0.06268107148564347
0.0042022226504668725 -0.01204814710494787 -0.06533907274082748
0.004028605706719037 -0.013393343863839698 -0.06792404632679203
0.003894567528214928 -0.014664914428209311 -0.07045008697805369
0.003794542923454683 -0.01582846483711095 -0.07292641052867242
0.0037223892098821663 -0.01688226938141574 -0.07535347938101566
0.0036720478837599236 -0.01784615658405528 -0.0777259804983768
0.0036379885391020494 -0.01874415968694158 -0.080037474192994
0.003615480687410345 -0.019595292872302925 -0.08228286563009445
0.003600729157216099 -0.020412015855935862 -0.08445881623889255
0.0035909263662617956 -0.021200557693150365 -0.08656365694904837
0.003584242976167935 -0.021961574687004184 -0.08859721190468763
0.00357976601221264 -0.02269102340424411 -0.09056056454048514
0.003577378730160166 -0.023381295371930663 -0.09245575354062069
0.0035774796054096774 -0.024023645207279773 -0.09428512222334877
0.003580588564800478 -0.02461150821248266 -0.09605042959414578
0.0035870678637920984 -0.025142586491545806 -0.0977522913723875
0.0035969747054953923 -0.025619597449026896 -0.09938997943171717
0.0036100119296844893 -0.02605005718728441 -0.10096147983857762
0.0036255480079795204 -0.02644541547131576 -0.10246372463768424
0.0036426825552804717 -0.026819793441954235 -0.10389293008075459
0.0036603380175139954 -0.027187712187781574 -0.10524520525382992
0.003677362157174432 -0.027558665446994993 -0.10651800631742717
0.0036926294639041822 -0.027932632610040392 -0.10771133879385969
0.0037051326977571345 -0.02829965445021215 -0.10882787124988053
0.003714058455611533 -0.028642162935131756 -0.1098723110255781
0.003718842962038476 -0.02893809587375634 -0.11085056966722556
0.003719206248598144 -0.02915995714060505 -0.11177001473944052
0.003715164522496519 -0.029273609678014373 -0.1126397932392559
0.0037070218583473346 -0.029244059890328168 -0.11346928167236803
0.003695343396461056 -0.029044639584047915 -0.1142656257596884
0.003680913018392471 -0.028665473710619005 -0.11503147151250247
0.0036646790161518838 -0.02811884029764984 -0.11576352904322791
0.003647691596346039 -0.027440392447486847 -0.11645224513188332
0.0036310361855396924 -0.026686233578912547 -0.1170825869127133
0.005410766489344848 0.001707672833530428 -0.00905902052759371
0.005892211109850776 0.002067584199948007 -0.013398783190846
0.006132458642509649 0.0015744162315332818 -0.017431302921183424
0.006047255650667177 0.0005363489247734544 -0.02123915629978815
0.005720055990603616 -0.0008015327128012027 -0.024888013656504896
0.005325630843128663 -0.0020753265106257307 -0.028475382284060474
0.005016871435172548 -0.0031609295071345516 -0.032034515470784695
0.004834968294868498 -0.004292537911122873 -0.03550266053166044
0.004732241848104854 -0.005482921863010873 -0.03887639571787491
0.00464908530328423 -0.006632928595226654 -0.0421822889334263
0.004547585503985086 -0.007839490017678872 -0.045394367351333766
0.004411660012619469 -0.00911461399009973 -0.04850941347527925
0.004242349868979272 -0.010366184152811988 -0.05155210980944795
0.00405227310746894 -0.011546976077431555 -0.05453511010128842
0.003859297849485217 -0.012680711450466923 -0.0574520581440576
0.0036804214720396232 -0.013813758432919824 -0.06029052962646058
0.003527506244425096 -0.01497201995560159 -0.0630435838791048
0.003405829147614405 -0.016140235808110987 -0.06571530986304368
0.003315379723667389 -0.017273927882323886 -0.0683176254514299
0.003253134023982613 -0.018330485542794227 -0.07086194812962023
0.003214621311891553 -0.0192923025538963 -0.07335299547423231
0.0031948391851961662 -0.020168508900946958 -0.07578832111307358
0.0031888698585714084 -0.020980796962626964 -0.07816211259079464
0.0031922930777549615 -0.021750189339095935 -0.0804687369186599
0.003201436081938149 -0.02249171053178988 -0.08270416829364291
0.0032135028026517493 -0.023213828805023824 -0.08486613765115916
0.003226618152360912 -0.023918990673232228 -0.08695398944964168
0.0032398057236901635 -0.02460442617554168 -0.08896846589786955
0.003252904392775423 -0.025263188968075723 -0.09091142826307481
0.003266372004343082 -0.025885970395047166 -0.09278537079205829
0.0032809500730880004 -0.02646400129964149 -0.0945926431733067
0.0032973286136308236 -0.02699177907378028 -0.09633471982621095
0.0033159342695244357 -0.027468506369192493 -0.09801181439959633
0.0033368336138182735 -0.02789837459894645 -0.09962280380771606
0.0033597203855484335 -0.02829003682339002 -0.10116536947003785
0.0033839603409402744 -0.028655554019560277 -0.10263627965750467
0.003408672097906746 -0.029008634519412383 -0.10403186123363961
0.0034328265552422406 -0.029360787505045706 -0.10534903032239357
0.0034553512046890385 -0.02971636552867322 -0.10658662066091608
0.003475228953835527 -0.030070105644153602 -0.10774604245137548
0.0034915839677176984 -0.030408076360967685 -0.10883102862540578
0.0035037495424018335 -0.030710391820459888 -0.10984690758277454
0.0035113151685979642 -0.03095228930633162 -0.11080031447331633
0.003514151750190315 -0.03110304443521151 -0.11169948187074352
0.003512415433327221 -0.031128247313415815 -0.11255362987828026
0.0035065316976985676 -0.030997272420677936 -0.11337096457934977
0.0034971622838568268 -0.03069208979540647 -0.11415631708760007
0.003485158199815951 -0.030214165199107284 -0.11490929465341931
0.0034715024876191118 -0.029587737731163164 -0.11562340242970266
0.003457246657122113 -0.02885895573827433 -0.11628627500421976

CELLS 100 350
4 0 51 52 1
4 1 52 53 2
4 2 53 54 3
4 3 54 55 4
4 4 55 56 5
4 5 56 57 6
4 6 57 58 7
4 7 58 59 8
4 8 59 60 9
4 9 60 61 10
4 10 61 62 11
4 11 62 63 12
4 12 63 64 13
4 13 64 65 14
4 14 65 66 15
4 15 66 67 16
4 16 67 68 17
4 17 68 69 18
4 18 69 70 19
4 19 70 71 20
4 20 71 72 21
4 21 72 73 22
4 22 73 74 23
4 23 74 75 24
4 24 75 76 25
4 25 76 77 26
4 26 77 78 27
4 27 78 79 28
4 28 79 80 29
4 29 80 81 30
4 30 81 82 31
4 31 82 83 32
4 32 83 84 33
4 33 84 85 34
4 34 85 86 35
4 35 86 87 36
4 36 87 88 37
4 37 88 89 38
4 38 89 90 39
4 39 90 91 40
4 40 91 92 41
4 41 92 93 42
4 42 93 94 43
4 43 94 95 44
4 44 95 96 45
4 45 96 97 46
4 46 97 98 47
4 47 98 99 48
4 48 99 100 49
4 49 100 101 50
1 102
1 103
1 104
1 105
1 106
1 107
1 108
1 109
1 110
1 111
1 112
1 113
1 114
1 115
1 116
1 117
1 118
1 119
1 120
1 121
1 122
1 123
1 124
1 125
1 126
1 127
1 128
1 129
1 130
1 131
1 132
1 133
1 134
1 135
1 136
1 137
1 138
1 139
1 140
1 141
1 142
1 143
1 144
1 145
1 146
1 147
1 148
1 149
1 150
1 151

CELL_TYPES 100
9
9
9
9
9
9
9
9
9
9
9
9
9
9
9
9
9
9
9
9
9
9
9
9
9
9
9
9
9
9
9
9
9
9
9
9
9
9
9
9
9
9
9
9
9
9
9
9
9
9
1
1
1
1
1
1
1
1
1
1
1
1
1
1
1
1
1
1
1
1
1
1
1
1
1
1
1
1
1
1
1
1
1
1
1
1
1
1
1
1
1
1
1
1
1
1
1
1
1
1

CELL_DATA 100

VECTORS S float
-1.6803205509256238e-17 1.412450141392602e-17 -1.439807286552689e-17
2.5067806674268997e-19 2.5288086173609e-19 2.64486282584727e-18
-9.30368525401e-21 8.677764937415999e-20 5.2520864581031e-19
-1.201730587504e-20 -9.156693216951999e-20 -6.2370648839727e-19
1.1017241682765e-19 -6.239310509983099e-19 -3.8304405782247596e-18
5.992777540604e-20 -8.625963942478799e-19 -5.58449872867936e-18
2.64045141326e-20 -4.3829912715672e-19 -2.87958386524471e-18
1.5826521919305e-19 -2.9407953618351097e-18 -1.949807673710816e-17
-1.1618227251375e-19 2.1296786851993197e-18 1.440994472291221e-17
-1.0644667901974e-19 1.91571231469678e-18 1.318519798294373e-17
-1.566740636911e-20 2.7615595320167e-19 1.92856467822519e-18
2.563825601201e-19 -4.42698895359485e-18 -3.130427779812086e-17
-3.5000076960110996e-19 5.89999687896494e-18 4.215649219872506e-17
-1.616149591465e-20 2.6597933372630996e-19 1.91637441805448e-18
-4.717158146007599e-19 7.79540635629383e-18 5.653439686141371e-17
-3.2233093257199e-19 5.3993400953016596e-18 3.933653800752714e-17
3.1448105293628997e-19 -5.32577341892763e-18 -3.88992288194346e-17
2.8065275960991e-19 -4.5931893478543694e-18 -3.428950244485358e-17
-1.9009416537195e-19 2.96452071901428e-18 2.2444226017609618e-17
-9.549232489751e-20 1.40794374463716e-18 1.080912244267243e-17
-9.654383138876999e-20 1.3552291535883999e-18 1.054970262641649e-17
-2.2823643127383e-19 3.08498376563957e-18 2.4349183643926477e-17
3.6821949614721e-19 -4.6667148085584894e-18 -3.733149147650579e-17
5.3321179000701e-19 -6.5771530566785295e-18 -5.341398992118641e-17
2.1818751450421e-19 -2.53536558568716e-18 -2.097333363255118e-17
-3.5403548966891e-19 3.874771075373e-18 3.269435822910842e-17
2.5237755443899997e-19 -2.58791010987816e-18 -2.2290539993431188e-17
-3.3890384073869997e-20 3.2335421455924997e-19 2.84325346942502e-18
-4.855408781194e-20 4.41202055986e-19 3.95854891738065e-18
-3.0548604343145e-19 2.6929862368217997e-18 2.46174934217022e-17
4.8189279212939e-19 -4.31622023153386e-18 -4.022084958822225e-17
8.349478151362999e-20 -8.0922609398383e-19 -7.641084005171649e-18
-3.0973847929834996e-19 3.21792402863169e-18 3.066307075023404e-17
7.986924317383999e-20 -9.237363920156199e-19 -8.846969184789199e-18
4.0928798553963e-19 -5.3218523806409696e-18 -5.101127716362719e-17
6.1647306763599995e-21 -9.18370005542e-20 -8.7564706322392e-19
4.805079104009e-20 -8.029795432618499e-19 -7.598786193523549e-18
2.4514834900666997e-19 -4.5616827426837994e-18 -4.27263253141605e-17
4.846452241763e-20 -1.01166192616059e-18 -9.35953795392949e-18
1.6112746929638999e-19 -3.72564750972508e-18 -3.399904695761692e-17
-4.52550657651e-20 1.18501309997484e-18 1.065876969277252e-17
-8.098837461764e-20 2.46085775633848e-18 2.181574333974092e-17
1.7232102417765998e-19 -3.98990164943809e-18 -3.485683944042502e-17
-8.302903181716e-20 1.39003720628859e-18 1.197714904372424e-17
-1.0729070006525999e-19 1.2150022221779099e-18 1.0337510417313479e-17
-4.965627510856e-19 4.2628986616642496e-18 3.5857886160623936e-17
1.23898509266572e-18 -8.2962288833624e-18 -6.908457134024989e-17
-4.8732127339252e-19 2.43773679164363e-18 2.012850937406622e-17
1.42907028748502e-18 -4.98447398438381e-18 -4.096959406954932e-17
2.93238817942573e-18 -5.1709678853976395e-18 -4.247403516516809e-17
-1.6803205509256238e-17 1.412450141392602e-17 -1.439807286552689e-17
2.5067806674268997e-19 2.5288086173609e-19 2.64486282584727e-18
-9.30368525401e-21 8.677764937415999e-20 5.2520864581031e-19
-1.201730587504e-20 -9.156693216951999e-20 -6.2370648839727e-19
1.1017241682765e-19 -6.239310509983099e-19 -3.8304405782247596e-18
5.992777540604e-20 -8.625963942478799e-19 -5.58449872867936e-18
2.64045141326e-20 -4.3829912715672e-19 -2.87958386524471e-18
1.5826521919305e-19 -2.9407953618351097e-18 -1.949807673710816e-17
-1.1618227251375e-19 2.1296786851993197e-18 1.440994472291221e-17
-1.0644667901974e-19 1.91571231469678e-18 1.318519798294373e-17
-1.566740636911e-20 2.7615595320167e-19 1.92856467822519e-18
2.563825601201e-19 -4.42698895359485e-18 -3.130427779812086e-17
-3.5000076960110996e-19 5.89999687896494e-18 4.215649219872506e-17
-1.616149591465e-20 2.6597933372630996e-19 1.91637441805448e-18
-4.717158146007599e-19 7.79540635629383e-18 5.653439686141371e-17
-3.2233093257199e-19 5.3993400953016596e-18 3.933653800752714e-17
3.1448105293628997e-19 -5.32577341892763e-18 -3.88992288194346e-17
2.8065275960991e-19 -4.5931893478543694e-18 -3.428950244485358e-17
-1.9009416537195e-19 2.96452071901428e-18 2.2444226017609618e-17
-9.549232489751e-20 1.40794374463716e-18 1.080912244267243e-17
-9.654383138876999e-20 1.3552291535883999e-18 1.054970262641649e-17
-2.2823643127383e-19 3.08498376563957e-18 2.4349183643926477e-17
3.6821949614721e-19 -4.6667148085584894e-18 -3.733149147650579e-17
5.3321179000701e-19 -6.5771530566785295e-18 -5.341398992118641e-17
2.1818751450421e-19 -2.53536558568716e-18 -2.097333363255118e-17
-3.5403548966891e-19 3.874771075373e-18 3.269435822910842e-17
2.5237755443899997e-19 -2.58791010987816e-18 -2.2290539993431188e-17
-3.3890384073869997e-20 3.2335421455924997e-19 2.84325346942502e-18
-4.855408781194e-20 4.41202055986e-19 3.95854891738065e-18
-3.0548604343145e-19 2.6929862368217997e-18 2.46174934217022e-17
4.8189279212939e-19 -4.31622023153386e-18 -4.022084958822225e-17
8.349478151362999e-20 -8.0922609398383e-19 -7.641084005171649e-18
-3.0973847929834996e-19 3.21792402863169e-18 3.066307075023404e-17
7.986924317383999e-20 -9.237363920156199e-19 -8.846969184789199e-18
4.0928798553963e-19 -5.3218523806409696e-18 -5.101127716362719e-17
6.1647306763599995e-21 -9.18370005542e-20 -8.7564706322392e-19
4.805079104009e-20 -8.029795432618499e-19 -7.598786193523549e-18
2.4514834900666997e-19 -4.5616827426837994e-18 -4.27263253141605e-17
4.846452241763e-20 -1.01166192616059e-18 -9.35953795392949e-18
1.6112746929638999e-19 -3.72564750972508e-18 -3.399904695761692e-17
-4.52550657651e-20 1.18501309997484e-18 1.065876969277252e-17
-8.098837461764e-20 2.46085775633848e-18 2.181574333974092e-17
1.7232102417765998e-19 -3.98990164943809e-18 -3.485683944042502e-17
-8.302903181716e-20 1.39003720628859e-18 1.197714904372424e-17
-1.0729070006525999e-19 1.2150022221779099e-18 1.0337510417313479e-17
-4.965627510856e-19 4.2628986616642496e-18 3.5857886160623936e-17
1.23898509266572e-18 -8.2962288833624e-18 -6.908457134024989e-17
-4.8732127339252e-19 2.43773679164363e-18 2.012850937406622e-17
1.42907028748502e-18 -4.98447398438381e-18 -4.096959406954932e-17
2.93238817942573e-18 -5.1709678853976395e-18 -4.247403516516809e-17

SCALARS Gamma float
LOOKUP_TABLE default
-0.00011045914174987041
-0.0025683498958499673
0.004104120209441685
-0.007256499223132298
0.00987884224740524
0.05939199514082532
0.11303850933075953
0.16533998879602826
0.2169791822620107
0.25392257657761347
0.2760076276405237
0.2820837940437787
0.27511061579501084
0.24658322946101477
0.22921994013461117
0.21565224178265507
0.1983842693137641
0.19898773769013395
0.1868627033493997
0.17569202630126296
0.16622274461728917
0.15321646551173126
0.1384015278056759
0.13621215778429274
0.13046852718653915
0.1253751566823493
0.1192260541028774
0.11006826152304902
0.1052631545553034
0.10279232338725132
0.10759530533663098
0.1203018898376134
0.12951046161723476
0.13877275274334758
0.14785275294254224
0.15648264827549468
0.16282326732578353
0.16788082756375894
0.17209367262803468
0.17381531694557179
0.1788970083294681
0.1932375856987303
0.1601675181357466
0.12301933454603207
0.09864235185031223
0.07871422579163206
0.06278044631803717
0.04805454477800136
0.03429253679680255
0.01794772188142097
-0.00011045914174987041
-0.0025683498958499673
0.004104120209441685
-0.007256499223132298
0.00987884224740524
0.05939199514082532
0.11303850933075953
0.16533998879602826
0.2169791822620107
0.25392257657761347
0.2760076276405237
0.2820837940437787
0.27511061579501084
0.24658322946101477
0.22921994013461117
0.21565224178265507
0.1983842693137641
0.19898773769013395
0.1868627033493997
0.17569202630126296
0.16622274461728917
0.15321646551173126
0.1384015278056759
0.13621215778429274
0.13046852718653915
0.1253751566823493
0.1192260541028774
0.11006826152304902
0.1052631545553034
0.10279232338725132
0.10759530533663098
0.1203018898376134
0.12951046161723476
0.13877275274334758
0.14785275294254224
0.15648264827549468
0.16282326732578353
0.16788082756375894
0.17209367262803468
0.17381531694557179
0.1788970083294681
0.1932375856987303
0.1601675181357466
0.12301933454603207
0.09864235185031223
0.07871422579163206
0.06278044631803717
0.04805454477800136
0.03429253679680255
0.01794772188142097

VECTORS Ftot float
0.09639063634178724 0.0972001089192842 -0.017139001730271625
0.12152587801853386 0.1427014174567583 -0.025162110082968876
-0.027936147015499048 0.04457516619826713 -0.007859804470318608
0.1405345502244068 0.09173852941234682 -0.016175977905914112
-0.09181790804859045 0.19650355577077455 -0.034648878687538756
-0.9443431238183008 0.46348674258088 -0.08172521791768957
-2.083079725524872 0.7919847437409577 -0.13964827863101292
-3.4294153147112962 1.0915360341737652 -0.19246725324035532
-4.97524097840177 1.4057835492653774 -0.24787756877159806
-6.354793432024186 1.6531203496084683 -0.2914897199941885
-7.468369053418972 1.831083711468009 -0.3228694622676098
-8.191853090514662 1.9218965838944115 -0.3388822218720207
-8.52036754828957 1.9448748734648138 -0.34293391429381465
-8.10145192514995 1.8202846159961268 -0.32096529036867033
-7.960866410577713 1.7280425667731467 -0.3047005283348204
-7.886898744856747 1.6542616939294077 -0.2916909697922485
-7.611157852847418 1.5611460272089066 -0.2752721654227665
-7.987827602179734 1.5429072927547038 -0.27205618444451346
-7.823308852279274 1.4976460600742272 -0.2640754079428216
-7.649533970701644 1.4668220618812975 -0.258640305408099
-7.509333644488823 1.4356944560626976 -0.25315166865742195
-7.167818193753626 1.3537825651884021 -0.2387083922554359
-6.686361005866932 1.2851050804210904 -0.22659869872376398
-6.786057775482728 1.2735599295597473 -0.2245629771305596
-6.690381601308099 1.2553826768082834 -0.2213578370353193
-6.606732262951405 1.2374927386253192 -0.21820335825045606
-6.445188766366506 1.2116235494534677 -0.2136419222304073
-6.093709803868678 1.1602920812338628 -0.20459079942391167
-5.962441880219078 1.1273535667476084 -0.1987828506155283
-5.950567572213853 1.1032159693218602 -0.19452674093988961
-6.359553703768957 1.1040501031565861 -0.1946738212404736
-7.257675032910897 1.126137172123325 -0.1985683674240784
-7.960890391228703 1.1265492925424696 -0.19864103537327446
-8.682188121270926 1.0899320270243973 -0.19218442350267248
-9.402612215935061 1.0478010047911521 -0.184755587558123
-10.102661260438094 0.9954763107548261 -0.17552933224220327
-10.659679221857637 0.9540215011493087 -0.16821973082861794
-11.134117008350179 0.9183711637490629 -0.16193361447359444
-11.552275766923842 0.8766174503372152 -0.15457130825431664
-11.79946467060183 0.8377986092839526 -0.14772649921679293
-12.2716439929742 0.7997430840081632 -0.14101628334563818
-13.383346425565462 0.7821180435237182 -0.1379085131721515
-11.19196529099811 0.8944076769393281 -0.1577082051971867
-8.669165297852448 0.997139433680495 -0.17582258568623346
-7.009289435758309 1.2373422052760548 -0.2181768151594843
-5.638130789854623 1.3591933767860382 -0.23966246432762944
-4.532085811325658 1.4452593766197304 -0.25483822221995983
-3.4978368328370313 1.533628270031637 -0.27042004238382983
-2.520976456112333 1.6086352289209136 -0.2836457929769001
-1.3470891757479815 1.70387885101536 -0.3004398132925522
0.09639063634178724 0.0972001089192842 -0.017139001730271625
0.12152587801853386 0.1427014174567583 -0.025162110082968876
-0.027936147015499048 0.04457516619826713 -0.007859804470318608
0.1405345502244068 0.09173852941234682 -0.016175977905914112
-0.09181790804859045 0.19650355577077455 -0.034648878687538756
-0.9443431238183008 0.46348674258088 -0.08172521791768957
-2.083079725524872 0.7919847437409577 -0.13964827863101292
-3.4294153147112962 1.0915360341737652 -0.19246725324035532
-4.97524097840177 1.4057835492653774 -0.24787756877159806
-6.354793432024186 1.6531203496084683 -0.2914897199941885
-7.468369053418972 1.831083711468009 -0.3228694622676098
-8.191853090514662 1.9218965838944115 -0.3388822218720207
-8.52036754828957 1.9448748734648138 -0.34293391429381465
-8.10145192514995 1.8202846159961268 -0.32096529036867033
-7.960866410577713 1.7280425667731467 -0.3047005283348204
-7.886898744856747 1.6542616939294077 -0.2916909697922485
-7.611157852847418 1.5611460272089066 -0.2752721654227665
-7.987827602179734 1.5429072927547038 -0.27205618444451346
-7.823308852279274 1.4976460600742272 -0.2640754079428216
-7.649533970701644 1.4668220618812975 -0.258640305408099
-7.509333644488823 1.4356944560626976 -0.25315166865742195
-7.167818193753626 1.3537825651884021 -0.2387083922554359
-6.686361005866932 1.2851050804210904 -0.22659869872376398
-6.786057775482728 1.2735599295597473 -0.2245629771305596
-6.690381601308099 1.2553826768082834 -0.2213578370353193
-6.606732262951405 1.2374927386253192 -0.21820335825045606
-6.445188766366506 1.2116235494534677 -0.2136419222304073
-6.093709803868678 1.1602920812338628 -0.20459079942391167
-5.962441880219078 1.1273535667476084 -0.1987828506155283
-5.950567572213853 1.1032159693218602 -0.19452674093988961
-6.359553703768957 1.1040501031565861 -0.1946738212404736
-7.257675032910897 1.126137172123325 -0.1985683674240784
-7.960890391228703 1.1265492925424696 -0.19864103537327446
-8.682188121270926 1.0899320270243973 -0.19218442350267248
-9.402612215935061 1.0478010047911521 -0.184755587558123
-10.102661260438094 0.9954763107548261 -0.17552933224220327
-10.659679221857637 0.9540215011493087 -0.16821973082861794
-11.134117008350179 0.9183711637490629 -0.16193361447359444
-11.552275766923842 0.8766174503372152 -0.15457130825431664
-11.79946467060183 0.8377986092839526 -0.14772649921679293
-12.2716439929742 0.7997430840081632 -0.14101628334563818
-13.383346425565462 0.7821180435237182 -0.1379085131721515
-11.19196529099811 0.8944076769393281 -0.1577082051971867
-8.669165297852448 0.997139433680495 -0.17582258568623346
-7.009289435758309 1.2373422052760548 -0.2181768151594843
-5.638130789854623 1.3591933767860382 -0.23966246432762944
-4.532085811325658 1.4452593766197304 -0.25483822221995983
-3.4978368328370313 1.533628270031637 -0.27042004238382983
-2.520976456112333 1.6086352289209136 -0.2836457929769001
-1.3470891757479815 1.70387885101536 -0.3004398132925522

VECTORS D float
0.09582648063736342 0.0979802110919173 -0.01571532658482252
0.1023698488316289 0.15541415598043398 -0.024562007849069933
0.012494945196886206 0.024932427267406108 -0.003898123936861332
0.051934870848148976 0.12733159217761714 -0.019694328535994513
0.051530601336790965 0.1486256221757887 -0.022727121849755068
0.05145214450905264 0.1692477863639894 -0.025590321465703197
0.06078126561986904 0.22265130420963772 -0.03333223722594211
0.06259532435737689 0.2540046503378419 -0.037802140426774884
0.06484599703707172 0.2836365198375328 -0.04139645965431336
0.06670168549459525 0.31090969880654395 -0.04463439734600414
0.06915062989982652 0.34087431010456604 -0.048248866143913785
0.07120382719400029 0.3694262471446302 -0.05166036751271125
0.07454670048189814 0.40584916961597955 -0.056181558474083224
0.074043041154659 0.42202134278601383 -0.0579491712157798
0.06939646792714331 0.4131736099656323 -0.056392584885897525
0.06521929769568197 0.40460027455089687 -0.055001085440990666
0.06215412147457514 0.4006089750032379 -0.054345713296872544
0.05773152089278975 0.3944103351815293 -0.052360014335929794
0.05776413336852918 0.4071717688157237 -0.05329159130692839
0.059008162938731734 0.4264439419186084 -0.05502521198647037
0.05885054439258013 0.4335353503513424 -0.0551539801146008
0.05494218390817182 0.41045685076787924 -0.05148890950377214
0.05476243412163101 0.4130304411457349 -0.05109173528147258
0.053843249994388304 0.4220461460855216 -0.05143132441762852
0.05401048283116918 0.43150733580657236 -0.051600973652074056
0.05409106234317361 0.4421738012030801 -0.05181848463193551
0.05439307812614186 0.4576968922959026 -0.05252231768012376
0.05419768674935369 0.47328620530873977 -0.053179327972493425
0.05311527948465289 0.48627874851412256 -0.053546949679412564
0.05152469081199478 0.5004864862881362 -0.05411042962561545
0.04839730839333754 0.5054327027135241 -0.05365964580941451
0.043968322323603946 0.5022915933884323 -0.05271455442972283
0.04029425791420582 0.5120322542829407 -0.0533279991961745
0.034665443969383036 0.49927330094543004 -0.051817543985473336
0.029744557396073876 0.4960731625370639 -0.0515151589444287
0.025097487221600212 0.5025476503417303 -0.052530010692000195
0.021612632787547246 0.5315506334700892 -0.056033394010395705
0.018265300578556545 0.574581772103334 -0.06124051217941546
0.014418777898095123 0.614919381412053 -0.06639128231615722
0.010385894202011163 0.6602996500480224 -0.07230703546158809
0.00608584270526428 0.7000300352041183 -0.07780160100871429
0.0015458098540760544 0.7607982631207697 -0.08581376692178644
-0.0032581495597182267 0.938979520996692 -0.10749676239827942
-0.008878226189757239 1.074615670562959 -0.12477868561309606
-0.016482743628032346 1.3311701170088939 -0.15662795295990253
-0.023130376578546125 1.4562650515893163 -0.17344569601834495
-0.028963527275947906 1.5384173222958881 -0.1852649202871323
-0.034389562418828165 1.6162997264886168 -0.19658048201186062
-0.039040535584208745 1.6760461276129912 -0.20527418394354613
-0.0436019407135286 1.7468785369039583 -0.21568260689019264
0.09582648063736342 0.0979802110919173 -0.01571532658482252
0.1023698488316289 0.15541415598043398 -0.024562007849069933
0.012494945196886206 0.024932427267406108 -0.003898123936861332
0.051934870848148976 0.12733159217761714 -0.019694328535994513
0.051530601336790965 0.1486256221757887 -0.022727121849755068
0.05145214450905264 0.1692477863639894 -0.025590321465703197
0.06078126561986904 0.22265130420963772 -0.03333223722594211
0.06259532435737689 0.2540046503378419 -0.037802140426774884
0.06484599703707172 0.2836365198375328 -0.04139645965431336
0.06670168549459525 0.31090969880654395 -0.04463439734600414
0.06915062989982652 0.34087431010456604 -0.048248866143913785
0.07120382719400029 0.3694262471446302 -0.05166036751271125
0.07454670048189814 0.40584916961597955 -0.056181558474083224
0.074043041154659 0.42202134278601383 -0.0579491712157798
0.06939646792714331 0.4131736099656323 -0.056392584885897525
0.06521929769568197 0.40460027455089687 -0.055001085440990666
0.06215412147457514 0.4006089750032379 -0.054345713296872544
0.05773152089278975 0.3944103351815293 -0.052360014335929794
0.05776413336852918 0.4071717688157237 -0.05329159130692839
0.059008162938731734 0.4264439419186084 -0.05502521198647037
0.05885054439258013 0.4335353503513424 -0.0551539801146008
0.05494218390817182 0.41045685076787924 -0.05148890950377214