# vtk DataFile Version 4.0
[MyVLM domain - lattices] 
ASCII
DATASET UNSTRUCTURED_GRID
POINTS 152 float
0.0018916144324157278 -0.008484243670807221 -0.005521560646483315
0.0010688609733395774 -0.009850942727205526 -0.009554518871467143
0.00045780959861706216 -0.0112103635145127 -0.013511842923527697
-0.00013255382275044122 -0.01242598300837101 -0.017405477019606545
-0.0007201482309470062 -0.013555121683231973 -0.02123040626800126
-0.0011946371146526612 -0.014448766126118378 -0.02499966765306065
-0.0014108622120167862 -0.014804250591825174 -0.02873974099632779
-0.0013224843579428829 -0.014873896100822041 -0.03242855106894228
-0.0010167791708201568 -0.015025999470660478 -0.036033876074555694
-0.0006138083932142036 -0.01501422256953656 -0.03957726780709504
-0.00020084691410191335 -0.014952311913024737 -0.04304877473593196
0.0001698744379422134 -0.014983168026652447 -0.046435894685070915
0.0004739400232210948 -0.01503340605698278 -0.04974504799726214
0.0007082255455298663 -0.015021532201049903 -0.05298336445641277
0.0008836440760600275 -0.014959258074538647 -0.056149819428918814
0.001017516815515788 -0.014905599130047055 -0.05923924973170507
0.0011275777072549662 -0.014914607843528225 -0.06224692638589015
0.0012277625198140337 -0.014999791523405222 -0.06517166765511227
0.00132638558954348 -0.015127453596650601 -0.06801642160751105
0.0014271324949937316 -0.01524795928165354 -0.07078553072379398
0.0015306083418583354 -0.015328543270268486 -0.07348186159698075
0.0016355657532635378 -0.01536846184094839 -0.07610547929427554
0.0017398364473795213 -0.015387777136831387 -0.07865462860558772
0.0018410131526058282 -0.01540969543886566 -0.08112727924441174
0.001936923789896676 -0.015451272331361395 -0.08352193904047064
0.0020259353317291845 -0.01552203422797922 -0.08583777454056506
0.0021071205190511294 -0.015624500522007843 -0.08807456532634327
0.002180316672546981 -0.01575503389287624 -0.09023262962212085
0.0022461021518325993 -0.015904897378435857 -0.09231273181303944
0.0023056987632523672 -0.01606156690251066 -0.09431596761378559
0.0023607022647827588 -0.016211362670805474 -0.09624353385127951
0.0024126938092907785 -0.016342982396999765 -0.09809641934744615
0.0024629658139780817 -0.01644974898990616 -0.09987520827206972
0.0025123806343549317 -0.01653046290114364 -0.10158000557203495
0.0025613283706516186 -0.016589243170149755 -0.10321045087808642
0.0026097549007438213 -0.016634683921249928 -0.10476579230177269
0.0026572361369983943 -0.01667858581411475 -0.1062449974191505
0.002703078927872171 -0.016733632087328785 -0.1076469565906269
0.0027464329900004744 -0.01680779611963025 -0.10897097223595227
0.0027864017842759935 -0.016899706150896397 -0.11021716436858646
0.0028221433614242725 -0.016998188700094192 -0.11138651054145195
0.0028529549202113143 -0.01708464240789827 -0.11248063816261593
0.002878337166053322 -0.017136212820756853 -0.11350154673767521
0.0028980365508205295 -0.017124778742069236 -0.11445169655253717
0.0029120651374179955 -0.017015657589866593 -0.11533412193994586
0.002920699186668212 -0.01677351740005378 -0.11615191404621975
0.0029244586304951574 -0.016371790554576077 -0.11690739723675546
0.002924070395798875 -0.015801350144784936 -0.11760137001259285
0.0029204190990956736 -0.015075981786679802 -0.11823262628861217
0.0029144889643634465 -0.014233589843316241 -0.11879784986274793
0.002907300946956263 -0.013333130211846367 -0.11929188276235128
0.006212993241944028 0.006055536034373099 -0.006793626540850938
0.0072288922610571306 0.008735691037319294 -0.01118063861897129
0.007974780507892725 0.009919003667677576 -0.015360423019446108
0.008270023946844132 0.010166208634366281 -0.019382037672551252
0.008140225139500825 0.009737736572375979 -0.023268267306483258
0.007751519283975376 0.009016632930320066 -0.027052624055611003
0.007318662739924205 0.008470107587128595 -0.030775983487828184
0.0069707766105224795 0.007955480906670314 -0.03442586275245731
0.006702226685381192 0.007178211453631479 -0.03797649281296979
0.006460614097576536 0.006438372721938698 -0.04145412669830881
0.006208498480286784 0.005664387031858589 -0.044852502172936196
0.005928720355726676 0.004746795928914728 -0.0481620428629582
0.00562110152420414 0.0037852053696573527 -0.05139146316039263
0.005297776270156929 0.002881724450899116 -0.05454969645365345
0.004977662142563614 0.0020408614357718745 -0.057637137164656904
0.004680078492205027 0.0012164436318890248 -0.060649745706254705
0.0044193472589770496 0.0003648098852540526 -0.06358370222243566
0.0042022226504668725 -0.0005190977664925532 -0.0664385641988328
0.004028605706719037 -0.0013949820114562243 -0.06921785719340748
0.003894567528214928 -0.0022085922059453538 -0.07192632752247168
0.003794542923454683 -0.0029244565977735665 -0.0745670785622171
0.0037223892098821663 -0.00354079539988285 -0.07714026602383482
0.0036720478837599236 -0.004078058494528999 -0.07964410077445702
0.0036379885391020494 -0.004561032244721572 -0.08207641428831032
0.003615480687410345 -0.0050093266733099795 -0.08443549091070392
0.003600729157216099 -0.005435791941743922 -0.08672020639818648
0.0035909263662617956 -0.005846852303009528 -0.08892999870145009
0.003584242976167935 -0.0062431846264984995 -0.0910648086020963
0.00357976601221264 -0.006620618771337388 -0.09312500094017684
0.003577378730160166 -0.006971307840594147 -0.09511126223021713
0.0035774796054096774 -0.0072862324005553815 -0.09702438157041848
0.003580588564800478 -0.007558622037827338 -0.09886495129520027
0.0035870678637920984 -0.007786106848072429 -0.10063317874432566
0.0035969747054953923 -0.007971489390182095 -0.10232881872566278
0.0036100119296844893 -0.008122521295923545 -0.1039511930593082
0.0036255480079795204 -0.008251011127480728 -0.10549926862993823
0.0036426825552804717 -0.008371522534821653 -0.10697177128328116
0.0036603380175139954 -0.008499031648682183 -0.10836739077767411
0.003677362157174432 -0.00864332970913451 -0.10968527049060886
0.0036926294639041822 -0.008804395460790329 -0.110925412281691
0.0037051326977571345 -0.008971957588222283 -0.11208871477457985
0.003714058455611533 -0.00912789753591084 -0.11317676313748289
0.003718842962038476 -0.009249461757831003 -0.11419154804773228
0.003719206248598144 -0.009308292492261751 -0.11513555048800161
0.003715164522496519 -0.00926918294078515 -0.11601185065403147
0.0037070218583473346 -0.009096042925966188 -0.11682360602721209
0.003695343396461056 -0.008761368562674307 -0.11757322288569529
0.003680913018392471 -0.008254975351493755 -0.11826159225772362
0.0036646790161518838 -0.00758952607218837 -0.11888760629361905
0.003647691596346039 -0.006801791075608478 -0.11944804800452831
0.0036310361855396924 -0.005949631873285142 -0.11993785516413791
0.005410766489344848 0.003254811852133053 -0.008624859374677144
0.005892211109850776 0.0043628472341590485 -0.012836193338780878
0.006132458642509649 0.004577411297905982 -0.01689308775239079
0.006047255650667177 0.004216341366077977 -0.020823349778088918
0.005720055990603616 0.0035324025873422218 -0.024649093500918085
0.005325630843128663 0.002900900604300304 -0.02840315390996325
0.005016871435172548 0.0024498273485936885 -0.032096728848265824
0.004834968294868498 0.0019376476886778567 -0.035708686729972405
0.004732241848104854 0.0013511913108141878 -0.039237875301935815
0.00464908530328423 0.000792718097353821 -0.04269324114459525
0.004547585503985086 0.00016225861783034564 -0.04606603806608575
0.004411660012619469 -0.000552571273489873 -0.0493551825940482
0.004242349868979272 -0.0012567685995454106 -0.05256898641197664
0.00405227310746894 -0.0019016290769469466 -0.05571171059253283
0.003859297849485217 -0.0025116177502003765 -0.05878121472166983
0.0036804214720396232 -0.0031345558027682545 -0.061773314987958294
0.003527506244425096 -0.0037971578763311194 -0.06468567416310098
0.003405829147614405 -0.00448368555673777 -0.06751966917991803
0.003315379723667389 -0.0051482669413136116 -0.07027931330986782
0.003253134023982613 -0.005746956120384849 -0.07296845132185514
0.003214621311891553 -0.0062615951380232664 -0.07558867183117651
0.0031948391851961662 -0.006701600082626917 -0.07813915103684235
0.0031888698585714084 -0.007089343099181095 -0.0806179316297877
0.0031922930777549615 -0.007446505565540215 -0.08302311673524064
0.003201436081938149 -0.007788582800562792 -0.08535335068846336
0.0032135028026517493 -0.008124308435530928 -0.08760786939572726
0.003226618152360912 -0.008456205650426022 -0.08978645210738792
0.0032398057236901635 -0.00878141768310247 -0.09188934875774747
0.003252904392775423 -0.009092780514592641 -0.09391718611725088
0.003266372004343082 -0.00938069378709559 -0.0958708041083715
0.0032809500730880004 -0.009636113547869175 -0.09775099397444775
0.0032973286136308236 -0.009853364755575652 -0.09955825221726171
0.0033159342695244357 -0.010031625075726672 -0.10129265078175875
0.0033368336138182735 -0.01017521726620129 -0.10295381147562928
0.0033597203855484335 -0.010293065545201563 -0.10454095353094979
0.0033839603409402744 -0.010397608840283979 -0.10605298868257268
0.003408672097906746 -0.010502985056494381 -0.10748868002408038
0.0034328265552422406 -0.01062106403505114 -0.10884698907892851
0.0034553512046890385 -0.010756334722537647 -0.11012752311517979
0.003475228953835527 -0.010903369249753554 -0.11133075700985637
0.0034915839677176984 -0.011047799560048978 -0.112457947805032
0.0035037495424018335 -0.011169116638735084 -0.1135108898069921
0.0035113151685979642 -0.011241781789138044 -0.11449181736217678
0.003514151750190315 -0.011234107828884569 -0.11540350273982279
0.003512415433327221 -0.0111106065737718 -0.11624905075373704
0.0035065316976985676 -0.010839692802568917 -0.11703122475271217
0.0034971622838568268 -0.010402771555233151 -0.11775165158495063
0.003485158199815951 -0.00980135452531389 -0.11841019899440412
0.0034715024876191118 -0.009060440384173325 -0.11900467988072527
0.003457246657122113 -0.008227623612730432 -0.11953093026638725

CELLS 100 350
4 0 51 52 1
4 1 52 53 2
4 2 53 54 3
4 3 54 55 4
4 4 55 56 5
4 5 56 57 6
4 6 57 58 7
4 7 58 59 8
4 8 59 60 9
4 9 60 61 10
4 10 61 62 11
4 11 62 63 12
4 12 63 64 13
4 13 64 65 14
4 14 65 66 15
4 15 66 67 16
4 16 67 68 17
4 17 68 69 18
4 18 69 70 19
4 19 70 71 20
4 20 71 72 21
4 21 72 73 22
4 22 73 74 23
4 23 74 75 24
4 24 75 76 25
4 25 76 77 26
4 26 77 78 27
4 27 78 79 28
4 28 79 80 29
4 29 80 81 30
4 30 81 82 31
4 31 82 83 32
4 32 83 84 33
4 33 84 85 34
4 34 85 86 35
4 35 86 87 36
4 36 87 88 37
4 37 88 89 38
4 38 89 90 39
4 39 90 91 40
4 40 91 92 41
4 41 92 93 42
4 42 93 94 43
4 43 94 95 44
4 44 95 96 45
4 45 96 97 46
4 46 97 98 47
4 47 98 99 48
4 48 99 100 49
4 49 100 101 50
1 102
1 103
1 104
1 105
1 106
1 107
1 108
1 109
1 110
1 111
1 112
1 113
1 114
1 115
1 116
1 117
1 118
1 119
1 120
1 121
1 122
1 123
1 124
1 125
1 126
1 127
1 128
1 129
1 130
1 131
1 132
1 133
1 134
1 135
1 136
1 137
1 138
1 139
1 140
1 141
1 142
1 143
1 144
1 145
1 146
1 147
1 148
1 149
1 150
1 151

CELL_TYPES 100
9
9
9
9
9
9
9
9
9
9
9
9
9
9
9
9
9
9
9
9
9
9
9
9
9
9
9
9
9
9
9
9
9
9
9
9
9
9
9
9
9
9
9
9
9
9
9
9
9
9
1
1
1
1
1
1
1
1
1
1
1
1
1
1
1
1
1
1
1
1
1
1
1
1
1
1
1
1
1
1
1
1
1
1
1
1
1
1
1
1
1
1
1
1
1
1
1
1
1
1

CELL_DATA 100

VECTORS S float
-8.31767497106242e-18 7.9415692521492e-18 -5.81625911152541e-18
-1.7885025465197e-19 1.4410137198663e-19 -1.7069049650481999e-18
-3.1488794433e-22 -9.592239703e-23 1.274700866881e-20
9.25036916e-21 -1.2607850094929999e-20 4.2468652972502996e-19
1.3644299588599998e-20 9.00814036565e-21 -5.9650893051986995e-19
1.636403827791e-20 3.417389799507e-20 -1.59903214766473e-18
-3.075870658555e-20 -8.448063683454999e-20 3.88120715981551e-18
2.7955594731039996e-20 8.923904014220999e-20 -3.5528423924833994e-18
-6.98857670206e-21 -2.5107421657309998e-20 9.0081575269893e-19
-1.971431665303e-20 -7.708076106037e-20 2.55735092921298e-18
-3.7621018187e-21 -1.560855869385e-20 4.8717136448381e-19
2.5547595421249998e-20 1.1114068536441e-19 -3.30438163885023e-18
7.650579584658e-20 3.4114416163061996e-19 -9.77056306887002e-18
-4.1871554896009996e-20 -1.9013840730747e-19 5.2957815019506794e-18
4.9858850012159996e-20 2.3425430369860997e-19 -6.39464720029169e-18
2.7626133049739996e-20 1.3429576907179e-19 -3.62063361818952e-18
-5.361640064058e-20 -2.7381620432295996e-19 6.867255975835159e-18
3.937257826808e-20 2.0833762692748998e-19 -5.10750855633187e-18
-6.353858608449e-20 -3.4215955880359e-19 8.20684856289329e-18
-1.1914139776942e-19 -6.3957742333111e-19 1.5014423096265148e-17
-5.3043734954209997e-20 -2.8951909029576997e-19 6.64396953498733e-18
-5.1708961979269995e-20 -2.9081569906202996e-19 6.5129295192779e-18
-2.2611508293412e-19 -1.27531524363847e-18 2.783684919176212e-17
-3.137749553714e-20 -1.7662321582978998e-19 3.74983726821352e-18
-9.92905921079e-21 -5.60724954776e-20 1.15551951317239e-18
1.0127692366705999e-19 5.7399882746557e-19 -1.146562345362902e-17
-8.105936615308999e-20 -4.5904427434333e-19 8.88469431811736e-18
1.842017967372e-20 1.0323381081386999e-19 -1.9378078041558e-18
-1.7119837771155e-19 -9.630205060824899e-19 1.756312934699257e-17
-4.726358008991e-20 -2.6681373964995996e-19 4.61776676761871e-18
-1.8285162187259998e-20 -1.0898920668525e-19 1.84483267377141e-18
1.0970865049944998e-19 7.199895140179099e-19 -1.1973291619729179e-17
-9.485533352806e-20 -6.7274240028001e-19 1.1056941057889889e-17
-1.4604660162584e-19 -1.15822269770175e-18 1.896153268814422e-17
-3.3172966197329996e-20 -2.9280818790846e-19 4.7980038686772294e-18
8.253024150759999e-20 8.0814172796828e-19 -1.3326489458206359e-17
-3.334487461167e-20 -3.5628361554046997e-19 5.941455183449409e-18
-4.0240119652539996e-20 -4.6310907057057e-19 7.842230945677599e-18
-4.064911457945e-20 -5.0484444016838e-19 8.72681289448509e-18
-5.7721279541999995e-21 -7.602338143961999e-20 1.34339701171905e-18
-1.441436540854e-20 -2.0358941963634998e-19 3.68460144177106e-18
-9.0173844525e-21 -1.3217706104417e-19 2.4534178983630697e-18
-1.045782674649e-20 -1.4733941226822998e-19 2.8073419585608997e-18
9.5943807914e-22 9.01364054663e-21 -1.7635058634188e-19
2.83525624422e-21 1.6932883213759998e-20 -3.4008172969641996e-19
-6.66000002175e-20 -2.8932862339110996e-19 5.9625597616524595e-18
-1.4276049188816998e-19 -4.680670965456e-19 9.82347784941918e-18
2.4477640348214e-19 5.857180921610199e-19 -1.2595498855901499e-17
1.5851938676489e-19 2.6336120528952996e-19 -5.788820004405e-18
1.4210776747454998e-19 1.1875812334206e-19 -2.6419310386593097e-18
-8.31767497106242e-18 7.9415692521492e-18 -5.81625911152541e-18
-1.7885025465197e-19 1.4410137198663e-19 -1.7069049650481999e-18
-3.1488794433e-22 -9.592239703e-23 1.274700866881e-20
9.25036916e-21 -1.2607850094929999e-20 4.2468652972502996e-19
1.3644299588599998e-20 9.00814036565e-21 -5.9650893051986995e-19
1.636403827791e-20 3.417389799507e-20 -1.59903214766473e-18
-3.075870658555e-20 -8.448063683454999e-20 3.88120715981551e-18
2.7955594731039996e-20 8.923904014220999e-20 -3.5528423924833994e-18
-6.98857670206e-21 -2.5107421657309998e-20 9.0081575269893e-19
-1.971431665303e-20 -7.708076106037e-20 2.55735092921298e-18
-3.7621018187e-21 -1.560855869385e-20 4.8717136448381e-19
2.5547595421249998e-20 1.1114068536441e-19 -3.30438163885023e-18
7.650579584658e-20 3.4114416163061996e-19 -9.77056306887002e-18
-4.1871554896009996e-20 -1.9013840730747e-19 5.2957815019506794e-18
4.9858850012159996e-20 2.3425430369860997e-19 -6.39464720029169e-18
2.7626133049739996e-20 1.3429576907179e-19 -3.62063361818952e-18
-5.361640064058e-20 -2.7381620432295996e-19 6.867255975835159e-18
3.937257826808e-20 2.0833762692748998e-19 -5.10750855633187e-18
-6.353858608449e-20 -3.4215955880359e-19 8.20684856289329e-18
-1.1914139776942e-19 -6.3957742333111e-19 1.5014423096265148e-17
-5.3043734954209997e-20 -2.8951909029576997e-19 6.64396953498733e-18
-5.1708961979269995e-20 -2.9081569906202996e-19 6.5129295192779e-18
-2.2611508293412e-19 -1.27531524363847e-18 2.783684919176212e-17
-3.137749553714e-20 -1.7662321582978998e-19 3.74983726821352e-18
-9.92905921079e-21 -5.60724954776e-20 1.15551951317239e-18
1.0127692366705999e-19 5.7399882746557e-19 -1.146562345362902e-17
-8.105936615308999e-20 -4.5904427434333e-19 8.88469431811736e-18
1.842017967372e-20 1.0323381081386999e-19 -1.9378078041558e-18
-1.7119837771155e-19 -9.630205060824899e-19 1.756312934699257e-17
-4.726358008991e-20 -2.6681373964995996e-19 4.61776676761871e-18
-1.8285162187259998e-20 -1.0898920668525e-19 1.84483267377141e-18
1.0970865049944998e-19 7.199895140179099e-19 -1.1973291619729179e-17
-9.485533352806e-20 -6.7274240028001e-19 1.1056941057889889e-17
-1.4604660162584e-19 -1.15822269770175e-18 1.896153268814422e-17
-3.3172966197329996e-20 -2.9280818790846e-19 4.7980038686772294e-18
8.253024150759999e-20 8.0814172796828e-19 -1.3326489458206359e-17
-3.334487461167e-20 -3.5628361554046997e-19 5.941455183449409e-18
-4.0240119652539996e-20 -4.6310907057057e-19 7.842230945677599e-18
-4.064911457945e-20 -5.0484444016838e-19 8.72681289448509e-18
-5.7721279541999995e-21 -7.602338143961999e-20 1.34339701171905e-18
-1.441436540854e-20 -2.0358941963634998e-19 3.68460144177106e-18
-9.0173844525e-21 -1.3217706104417e-19 2.4534178983630697e-18
-1.045782674649e-20 -1.4733941226822998e-19 2.8073419585608997e-18
9.5943807914e-22 9.01364054663e-21 -1.7635058634188e-19
2.83525624422e-21 1.6932883213759998e-20 -3.4008172969641996e-19
-6.66000002175e-20 -2.8932862339110996e-19 5.9625597616524595e-18
-1.4276049188816998e-19 -4.680670965456e-19 9.82347784941918e-18
2.4477640348214e-19 5.857180921610199e-19 -1.2595498855901499e-17
1.5851938676489e-19 2.6336120528952996e-19 -5.788820004405e-18
1.4210776747454998e-19 1.1875812334206e-19 -2.6419310386593097e-18

SCALARS Gamma float
LOOKUP_TABLE default
-0.0001082266657924143
-0.0020626813743398744
0.003157594162415816
-0.006737627492546609
0.01350033611468923
0.06449029908257088
0.12160641252789796
0.17151239905429028
0.22382657932754743
0.26211539823345864
0.28693315036849437
0.29323116708316765
0.2841997591755748
0.25829554972757446
0.24219526334909858
0.22859483583044324
0.21882083852144382
0.2095177071362044
0.1991114146044221
0.1880128359509278
0.18134616281620788
0.17194738260456996
0.15938581739050386
0.1505566431013296
0.14419337727458034
0.13875485608452193
0.1323821562630644
0.12253057192865652
0.11642710996009366
0.11118013327289403
0.11432117897904966
0.12513684117409887
0.13212388046299284
0.14028717634294882
0.1477742789067328
0.15401268442429644
0.15929328754781
0.1635190117469857
0.16693435305037732
0.16757554810694358
0.16999070154994989
0.1697763590487902
0.1845166856037886
0.13341909480364308
0.1035691023971886
0.08162304835271547
0.06490618729063714
0.04971219303012007
0.03572984786515678
0.018686533987940783
-0.0001082266657924143
-0.0020626813743398744
0.003157594162415816
-0.006737627492546609
0.01350033611468923
0.06449029908257088
0.12160641252789796
0.17151239905429028
0.22382657932754743
0.26211539823345864
0.28693315036849437
0.29323116708316765
0.2841997591755748
0.25829554972757446
0.24219526334909858
0.22859483583044324
0.21882083852144382
0.2095177071362044
0.1991114146044221
0.1880128359509278
0.18134616281620788
0.17194738260456996
0.15938581739050386
0.1505566431013296
0.14419337727458034
0.13875485608452193
0.1323821562630644
0.12253057192865652
0.11642710996009366
0.11118013327289403
0.11432117897904966
0.12513684117409887
0.13212388046299284
0.14028717634294882
0.1477742789067328
0.15401268442429644
0.15929328754781
0.1635190117469857
0.16693435305037732
0.16757554810694358
0.16999070154994989
0.1697763590487902
0.1845166856037886
0.13341909480364308
0.1035691023971886
0.08162304835271547
0.06490618729063714
0.04971219303012007
0.03572984786515678
0.018686533987940783

VECTORS Ftot float
0.09002721011488955 0.0942908194226907 -2.8614946737191623e-16
0.10206082572908194 0.12667197001656866 -3.844183025783499e-16
-0.014797418931052386 0.048576025756401686 -1.4741630184511734e-16
0.13337147064967594 0.09785453742170884 -2.9696447580567846e-16
-0.14422041844145217 0.21844537453167995 -6.629280342965888e-16
-1.0274689153222412 0.49199949804157295 -1.493097580165549e-15
-2.241651621896412 0.8161669595360167 -2.4768661698742815e-15
-3.551436754276267 1.1125458819058265 -3.3763033716680198e-15
-5.123093470774711 1.4259979443930697 -4.3275533584272686e-15
-6.549207346620398 1.675037268462793 -5.0833265118851365e-15
-7.752249483496036 1.8685102483163831 -5.6704694646659625e-15
-8.504938863380781 1.9550062738197802 -5.932963647865612e-15
-8.791230874014346 1.9715422104034541 -5.983146152110297e-15
-8.47816086942416 1.8670282521469619 -5.665971970454718e-15
-8.404215967511679 1.7887592107296741 -5.428444662383858e-15
-8.353631122565602 1.718434813214596 -5.215027396361584e-15
-8.391463302284079 1.6431462100223653 -4.986544985936715e-15
-8.408839144776854 1.5891401003939398 -4.822649713845312e-15
-8.335443522923248 1.5478810461573396 -4.6974386226027325e-15
-8.184416216781155 1.524604766246025 -4.626800832626973e-15
-8.19300766320274 1.5010676032476291 -4.555371326587319e-15
-8.046929827497493 1.4307975458062223 -4.342118969335945e-15
-7.706161366914564 1.3663126237025176 -4.146423076284303e-15
-7.505558865173637 1.3333787333070757 -4.0464768116019004e-15
-7.399605679697162 1.3102880887399864 -3.97640237928069e-15
-7.317703196568159 1.2911428257254545 -3.918301210494101e-15
-7.163066830801279 1.2648750664573885 -3.8385850157507345e-15
-6.79093404345238 1.2117175976219494 -3.677265159934107e-15
-6.601695273476377 1.1735986033803958 -3.561583379186438e-15
-6.442783457220614 1.1412793521493694 -3.463502393336062e-15
-6.7651337042095445 1.1349891494964628 -3.4444131739421593e-15
-7.556014665982524 1.1513503405528016 -3.4940653684506614e-15
-8.12711520040273 1.145906995953126 -3.4775461551544394e-15
-8.782362092513278 1.1074158194311359 -3.3607348926399968e-15
-9.402443612458079 1.0652261685587074 -3.2326996692781835e-15
-9.947943965999379 1.015918606358796 -3.083063334083531e-15
-10.43325468963221 0.9764568288935813 -2.9633065362069503e-15
-10.849446022339277 0.942721777322884 -2.8609289442226757e-15
-11.210979014182668 0.9026867174041137 -2.739432374969168e-15
-11.380572293411714 0.8640778432331148 -2.622263929011194e-15
-11.665111639182205 0.8259033401582849 -2.506413692594419e-15
-11.762374142787289 0.8024527772195054 -2.4352469964559343e-15
-12.896415812792455 0.9153591706703426 -2.777890156698386e-15
-9.4016615643051 1.0007401632311104 -3.037000488908203e-15
-7.3560893846201285 1.2317098096948296 -3.737936610996546e-15
-5.8411986876457656 1.3445743089917963 -4.080452632776426e-15
-4.679569881294477 1.427269088147806 -4.331410967371575e-15
-3.6106088845774114 1.5089031207601642 -4.579150196858285e-15
-2.616523245497764 1.5749079667081627 -4.7794586852946474e-15
-1.3906450893102258 1.6640669575259281 -5.050034313867259e-15
0.09002721011488955 0.0942908194226907 -2.8614946737191623e-16
0.10206082572908194 0.12667197001656866 -3.844183025783499e-16
-0.014797418931052386 0.048576025756401686 -1.4741630184511734e-16
0.13337147064967594 0.09785453742170884 -2.9696447580567846e-16
-0.14422041844145217 0.21844537453167995 -6.629280342965888e-16
-1.0274689153222412 0.49199949804157295 -1.493097580165549e-15
-2.241651621896412 0.8161669595360167 -2.4768661698742815e-15
-3.551436754276267 1.1125458819058265 -3.3763033716680198e-15
-5.123093470774711 1.4259979443930697 -4.3275533584272686e-15
-6.549207346620398 1.675037268462793 -5.0833265118851365e-15
-7.752249483496036 1.8685102483163831 -5.6704694646659625e-15
-8.504938863380781 1.9550062738197802 -5.932963647865612e-15
-8.791230874014346 1.9715422104034541 -5.983146152110297e-15
-8.47816086942416 1.8670282521469619 -5.665971970454718e-15
-8.404215967511679 1.7887592107296741 -5.428444662383858e-15
-8.353631122565602 1.718434813214596 -5.215027396361584e-15
-8.391463302284079 1.6431462100223653 -4.986544985936715e-15
-8.408839144776854 1.5891401003939398 -4.822649713845312e-15
-8.335443522923248 1.5478810461573396 -4.6974386226027325e-15
-8.184416216781155 1.524604766246025 -4.626800832626973e-15
-8.19300766320274 1.5010676032476291 -4.555371326587319e-15
-8.046929827497493 1.4307975458062223 -4.342118969335945e-15
-7.706161366914564 1.3663126237025176 -4.146423076284303e-15
-7.505558865173637 1.3333787333070757 -4.0464768116019004e-15
-7.399605679697162 1.3102880887399864 -3.97640237928069e-15
-7.317703196568159 1.2911428257254545 -3.918301210494101e-15
-7.163066830801279 1.2648750664573885 -3.8385850157507345e-15
-6.79093404345238 1.2117175976219494 -3.677265159934107e-15
-6.601695273476377 1.1735986033803958 -3.561583379186438e-15
-6.442783457220614 1.1412793521493694 -3.463502393336062e-15
-6.7651337042095445 1.1349891494964628 -3.4444131739421593e-15
-7.556014665982524 1.1513503405528016 -3.4940653684506614e-15
-8.12711520040273 1.145906995953126 -3.4775461551544394e-15
-8.782362092513278 1.1074158194311359 -3.3607348926399968e-15
-9.402443612458079 1.0652261685587074 -3.2326996692781835e-15
-9.947943965999379 1.015918606358796 -3.083063334083531e-15
-10.43325468963221 0.9764568288935813 -2.9633065362069503e-15
-10.849446022339277 0.942721777322884 -2.8609289442226757e-15
-11.210979014182668 0.9026867174041137 -2.739432374969168e-15
-11.380572293411714 0.8640778432331148 -2.622263929011194e-15
-11.665111639182205 0.8259033401582849 -2.506413692594419e-15
-11.762374142787289 0.8024527772195054 -2.4352469964559343e-15
-12.896415812792455 0.9153591706703426 -2.777890156698386e-15
-9.4016615643051 1.0007401632311104 -3.037000488908203e-15
-7.3560893846201285 1.2317098096948296 -3.737936610996546e-15
-5.8411986876457656 1.3445743089917963 -4.080452632776426e-15
-4.679569881294477 1.427269088147806 -4.331410967371575e-15
-3.6106088845774114 1.5089031207601642 -4.579150196858285e-15
-2.616523245497764 1.5749079667081627 -4.7794586852946474e-15
-1.3906450893102258 1.6640669575259281 -5.050034313867259e-15

VECTORS D float
0.08947659987255563 0.09478789968418844 0.0014661304093438157
0.08671462990958037 0.13638590784514346 0.002428057146479512
0.016234403738203198 0.033545302494346285 0.0006534681242682146
0.051293312125334486 0.1301454645892159 0.0027464314355168068
0.051238789259355974 0.15283909626449133 0.0034801045173156104
0.05135808397497937 0.1746466988446974 0.004258065814051641
0.056421415326593664 0.21613282457393637 0.005151615875349863
0.06005374652224354 0.2521188032773372 0.006805164861036241
0.06191955497904847 0.2802807352346986 0.008292324083927143
0.06308765963952719 0.3044239964153736 0.00966193694635892
0.0659383940923722 0.3366044439653595 0.011293720390178797
0.06692556585552702 0.35970353640483654 0.012615820265348276
0.07095066583131282 0.40031761681013295 0.014532852807668624
0.07105437941445523 0.4199531855298584 0.015639691168922398
0.06748689575489814 0.4169528584616703 0.015800374498018153
0.06384915218636951 0.41138078988742843 0.01574602976846157
0.059013276833663614 0.40202559506430635 0.01649060445300244
0.05554317484745573 0.3934074180592362 0.016475439045275785
0.05497624856372033 0.4032479447820676 0.017237828978189616
0.05741670392416286 0.4343899280395444 0.01895954945669329
0.05647492720009909 0.4390396900958705 0.019582572145328228
0.051843270776826426 0.41278773076612996 0.01884342734574366
0.05063247141734578 0.4118905308370331 0.019281601680672396
0.05084796887591806 0.4220785805040236 0.020306043353781805
0.05073956452229018 0.4299044730317786 0.02129744455182967
0.050750974270557705 0.43989864787776994 0.02247075457124056
0.05093402947580327 0.45364226174023997 0.023902967889833874
0.050766707570894486 0.46769517302867253 0.025398332476704564
0.04994953478545292 0.48017962657295155 0.02681607001864677
0.049163539459991315 0.49571923893199304 0.029145765824386202
0.04651924134073932 0.5021530935167967 0.03012732805521015
0.04275841294554518 0.5011190526530123 0.030525559935771152
0.039621682261067465 0.5120949515351237 0.031497528378729836
0.034349232749972876 0.5008596786562712 0.030858456777638855
0.02985340279230641 0.49867518102129027 0.03063909618563959
0.025774166120247723 0.50430826269788 0.03074175688088861
0.02253054603796281 0.5303355567970519 0.031928398346978165
0.01944919109745171 0.5696039492914816 0.033736751080052425
0.015894123214695993 0.6063718153234685 0.03515252651634317
0.012212937544279852 0.6469206444232912 0.036661976408103064
0.008302373292755448 0.6816356450296841 0.03769565881477854
0.0044810431317581475 0.727900066797433 0.039231840167149534
0.0007423237685805373 0.902262618636163 0.04735675560627288
-0.00395306174994064 1.0339703677733987 0.05282684172622079
-0.010030378227743419 1.2858346301022523 0.06393889183827658
-0.015670152746977094 1.406197793599294 0.0680596347681504
-0.021317360763932407 1.4905359996575196 0.07071096320424292
-0.025778503050056537 1.564629037915852 0.0722576831752589
-0.02946318796278452 1.6187190786181591 0.07283648839680561
-0.032981696188538356 1.6873525488142103 0.0740745553298227
0.08947659987255563 0.09478789968418844 0.0014661304093438157
0.08671462990958037 0.13638590784514346 0.002428057146479512
0.016234403738203198 0.033545302494346285 0.0006534681242682146
0.051293312125334486 0.1301454645892159 0.0027464314355168068
0.051238789259355974 0.15283909626449133 0.0034801045173156104
0.05135808397497937 0.1746466988446974 0.004258065814051641
0.056421415326593664 0.21613282457393637 0.005151615875349863
0.06005374652224354 0.2521188032773372 0.006805164861036241
0.06191955497904847 0.2802807352346986 0.008292324083927143
0.06308765963952719 0.3044239964153736 0.00966193694635892
0.0659383940923722 0.3366044439653595 0.011293720390178797
0.06692556585552702 0.35970353640483654 0.012615820265348276
0.07095066583131282 0.40031761681013295 0.014532852807668624
0.07105437941445523 0.4199531855298584 0.015639691168922398
0.06748689575489814 0.4169528584616703 0.015800374498018153
0.06384915218636951 0.41138078988742843 0.01574602976846157
0.059013276833663614 0.40202559506430635 0.01649060445300244
0.05554317484745573 0.3934074180592362 0.016475439045275785