# vtk DataFile Version 4.0
[MyVLM domain - lattices] 
ASCII
DATASET UNSTRUCTURED_GRID
POINTS 152 float
0.0018916144324157278 0.006240000000000041 -0.007970722842906154
0.0010688609733395774 0.010376727272727355 -0.00898072572720841
0.00045780959861706216 0.014437473840445393 -0.009990069990949025
-0.00013255382275044122 0.01842223970315415 -0.010861711113996302
-0.0007201482309470062 0.022331024860853633 -0.011653188525702058
-0.0011946371146526612 0.02616382931354384 -0.012214919606059743
-0.0014108622120167862 0.029920653061224767 -0.012243082475887675
-0.0013224843579428829 0.03360149610389642 -0.011990961980962502
-0.0010167791708201568 0.0372063584415588 -0.011828261772846512
-0.0006138083932142036 0.0407352400742119 -0.011507702748091538
-0.00020084691410191335 0.044188141001855724 -0.011143465915482665
0.0001698744379422134 0.047565061224490265 -0.010878997657339698
0.0004739400232210948 0.05086600074211554 -0.01064063280200746
0.0007082255455298663 0.054090959554731526 -0.010346566253431989
0.0008836440760600275 0.05723993766233824 -0.010008554363767408
0.001017516815515788 0.06031293506493567 -0.00968583801505323
0.0011275777072549662 0.06330995176252383 -0.009432676154919514
0.0012277625198140337 0.06623098775510271 -0.009262627687513146
0.00132638558954348 0.06907604304267231 -0.009141867324371951
0.0014271324949937316 0.07184511762523264 -0.009020570687082846
0.0015306083418583354 0.0745382115027837 -0.008865847309346114
0.0016355657532635378 0.07715532467532547 -0.008676950628719215
0.0017398364473795213 0.07969645714285797 -0.008474019422467838
0.0018410131526058282 0.0821616089053812 -0.00828034861576338
0.001936923789896676 0.08455077996289515 -0.008113058942477302
0.0020259353317291845 0.08686397031539982 -0.007981713205622779
0.0021071205190511294 0.08910117996289521 -0.007888840422161586
0.002180316672546981 0.09126240890538133 -0.007830789377549037
0.0022461021518325993 0.09334765714285816 -0.007798789735860542
0.0023056987632523672 0.09535692467532572 -0.007780269580983692
0.0023607022647827588 0.097290211502784 -0.007761496864031476
0.0024126938092907785 0.09914751762523301 -0.007731126125785755
0.0024629658139780817 0.10092884304267273 -0.007682454769655557
0.0025123806343549317 0.10263418775510319 -0.007614278665179913
0.0025613283706516186 0.10426355176252436 -0.007530732585857869
0.0026097549007438213 0.10581693506493627 -0.007440443484173589
0.0026572361369983943 0.10729433766233885 -0.0073552570964005234
0.002703078927872171 0.10869575955473221 -0.007287905109034143
0.0027464329900004744 0.1100212007421163 -0.0072463913578241146
0.0027864017842759935 0.11127066122449106 -0.00722933884274688
0.0028221433614242725 0.11244414100185655 -0.007225531401887061
0.0028529549202113143 0.1135416400742128 -0.007216296621748585
0.002878337166053322 0.11456315844155976 -0.007178692748479964
0.0028980365508205295 0.11550869610389743 -0.007084491167077958
0.0029120651374179955 0.11637825306122584 -0.006898876813745027
0.002920699186668212 0.11717182931354496 -0.006586382762023102
0.0029244586304951574 0.1178894248608548 -0.00612033990987258
0.002924070395798875 0.11853103970315539 -0.005491586485336606
0.0029204190990956736 0.11909667384044667 -0.004713960763228167
0.0029144889643634465 0.11958632727272869 -0.003825511895111898
0.002907300946956263 0.1200000000000014 -0.002885420980089246
0.006212993241944028 0.00624000000000009 0.006624596458664071
0.0072288922610571306 0.010376727272727418 0.009676905958774663
0.007974780507892725 0.014437473840445463 0.011220007941271034
0.008270023946844132 0.018422239703154226 0.011816779030564507
0.008140225139500825 0.02233102486085371 0.011728644664362622
0.007751519283975376 0.026163829313543916 0.011340113462664204
0.007318662739924205 0.029920653061224847 0.011120179970235466
0.0069707766105224795 0.0336014961038965 0.010925619537914391
0.006702226685381192 0.03720635844155887 0.010460765629954549
0.006460614097576536 0.040735240074211976 0.010026837972280416
0.006208498480286784 0.044188141001855794 0.009551985470050295
0.005928720355726676 0.047565061224490335 0.00892633155527392
0.00562110152420414 0.0508660007421156 0.008249862663073893
0.005297776270156929 0.05409095955473158 0.007625077930424398
0.004977662142563614 0.05723993766233829 0.007056502841290057
0.004680078492205027 0.06031293506493573 0.006497788331100406
0.0044193472589770496 0.06330995176252388 0.00590510646734371
0.0042022226504668725 0.06623098775510275 0.005273379967065948
0.004028605706719037 0.06907604304267236 0.004643060071346556
0.003894567528214928 0.07184511762523269 0.004068604652522667
0.003794542923454683 0.07453821150278374 0.0035856209591113835
0.0037223892098821663 0.07715532467532552 0.0031958955766681436
0.0036720478837599236 0.07969645714285802 0.0028789005077091536
0.0036379885391020494 0.08216160890538124 0.0026097547093448695
0.003615480687410345 0.08455077996289519 0.002368773251624373
0.003600729157216099 0.08686397031539986 0.00214305688756882
0.0035909263662617956 0.08910117996289524 0.0019261568245893385
0.003584242976167935 0.09126240890538136 0.00171739360776311
0.00357976601221264 0.0933476571428582 0.0015209533072242556
0.003577378730160166 0.09535692467532575 0.0013447127937763201
0.0035774796054096774 0.09729021150278404 0.0011977259539042162
0.003580588564800478 0.09914751762523304 0.0010867890628809647
0.0035870678637920984 0.10092884304267276 0.0010142810776937127
0.0035969747054953923 0.10263418775510322 0.0009773887341313525
0.0036100119296844893 0.10426355176252439 0.0009683307904526242
0.0036255480079795204 0.10581693506493628 0.0009752535776844201
0.0036426825552804717 0.1072943376623389 0.0009835378150818126
0.0036603380175139954 0.10869575955473222 0.0009781501655224995
0.003677362157174432 0.1100212007421163 0.0009492619879878664
0.0036926294639041822 0.11127066122449109 0.0008968946190583483
0.0037051326977571345 0.11244414100185661 0.0008313586089175909
0.003714058455611533 0.11354164007421282 0.0007708417230237302
0.003718842962038476 0.11456315844155979 0.0007381844222511139
0.003719206248598144 0.11550869610389748 0.0007618527903636325
0.003715164522496519 0.11637825306122587 0.0008771881100295957
0.0037070218583473346 0.11717182931354499 0.0011204184172987294
0.003695343396461056 0.11788942486085485 0.0015191526576746003
0.003680913018392471 0.11853103970315539 0.0020836142337061904
0.0036646790161518838 0.1190966738404467 0.002801091995868114
0.003647691596346039 0.1195863272727287 0.0036346751365433877
0.0036310361855396924 0.12000000000000145 0.004526281122626884
0.005410766489344848 0.00830836363636374 0.003994132335275205
0.005892211109850776 0.012407100556586424 0.005464993247747458
0.006132458642509649 0.016429856771799825 0.006032322476320162
0.006047255650667177 0.02037663228200395 0.006015171430635381
0.005720055990603616 0.024247427087198795 0.005667270781164834
0.005325630843128663 0.02804224118738436 0.00536535977709395
0.005016871435172548 0.03176107458256065 0.005237919258449924
0.004834968294868498 0.03540392727272766 0.005042491468724725
0.004732241848104854 0.0389707992578854 0.004765855785720857
0.00464908530328423 0.04246169053803387 0.004510662707927241
0.004547585503985086 0.04587660111317304 0.004176560937893784
0.004411660012619469 0.04921553098330295 0.0037511190244620346
0.004242349868979272 0.05247848014842358 0.0033297028406319273
0.00405227310746894 0.05566544860853493 0.002961202712242997
0.003859297849485217 0.05877643636363699 0.002621060142293842
0.0036804214720396232 0.0618114434137298 0.0022612712781699515
0.003527506244425096 0.0647704697588133 0.0018550194325995376
0.003405829147614405 0.06765351539888755 0.0014181031379190518
0.003315379723667389 0.07046058033395251 0.0009965695200191073
0.003253134023982613 0.07319166456400822 0.0006345323548091488
0.003214621311891553 0.07584676808905463 0.0003502189586591562
0.0031948391851961662 0.07842589090909177 0.00013417727524310394
0.0031888698585714084 0.08092903302411962 -3.6050298383643425e-5
0.0031922930777549615 0.0833561944341382 -0.00018222795941662083
0.003201436081938149 0.08570737513914752 -0.0003199102163150632
0.0032135028026517493 0.08798257513914755 -0.00045786406141373666
0.003226618152360912 0.0901817944341383 -0.0005986223128316603
0.0032398057236901635 0.09230503302411977 -0.0007393172960559343
0.003252904392775423 0.09435229090909197 -0.0008727576267303137
0.003266372004343082 0.09632356808905489 -0.0009893062752466947
0.0032809500730880004 0.09821886456400854 -0.0010798847424327112
0.0032973286136308236 0.1000381803339529 -0.0011387963092146594
0.0033159342695244357 0.101781515398888 -0.001165215499920035
0.0033368336138182735 0.1034488697588138 -0.0011634815846607318
0.0033597203855484335 0.10504024341373033 -0.0011425528707025407
0.0033839603409402744 0.10655563636363759 -0.0011149158002844268
0.003408672097906746 0.10799504860853558 -0.0010947622829527168
0.0034328265552422406 0.10935848014842425 -0.0010940075007908954
0.0034553512046890385 0.11064593098330369 -0.0011171575474290447
0.003475228953835527 0.11185740111317384 -0.0011587638200882655
0.0034915839677176984 0.1129928905380347 -0.0012044033784764602
0.0035037495424018335 0.11405239925788631 -0.001233488866800503
0.0035113151685979642 0.11503592727272863 -0.0012203840347142104
0.003514151750190315 0.11594347458256166 -0.0011332806599554132
0.003512415433327221 0.11677504118738542 -0.0009365549992228943
0.0035065316976985676 0.11753062708719991 -0.0005985011808719613
0.0034971622838568268 0.11821023228200511 -0.00010045321513335153
0.003485158199815951 0.11881385677180105 0.0005560714300197674
0.0034715024876191118 0.11934150055658772 0.0013459785923618046
0.003457246657122113 0.11979316363636507 0.0022214919877887097

CELLS 100 350
4 0 51 52 1
4 1 52 53 2
4 2 53 54 3
4 3 54 55 4
4 4 55 56 5
4 5 56 57 6
4 6 57 58 7
4 7 58 59 8
4 8 59 60 9
4 9 60 61 10
4 10 61 62 11
4 11 62 63 12
4 12 63 64 13
4 13 64 65 14
4 14 65 66 15
4 15 66 67 16
4 16 67 68 17
4 17 68 69 18
4 18 69 70 19
4 19 70 71 20
4 20 71 72 21
4 21 72 73 22
4 22 73 74 23
4 23 74 75 24
4 24 75 76 25
4 25 76 77 26
4 26 77 78 27
4 27 78 79 28
4 28 79 80 29
4 29 80 81 30
4 30 81 82 31
4 31 82 83 32
4 32 83 84 33
4 33 84 85 34
4 34 85 86 35
4 35 86 87 36
4 36 87 88 37
4 37 88 89 38
4 38 89 90 39
4 39 90 91 40
4 40 91 92 41
4 41 92 93 42
4 42 93 94 43
4 43 94 95 44
4 44 95 96 45
4 45 96 97 46
4 46 97 98 47
4 47 98 99 48
4 48 99 100 49
4 49 100 101 50
1 102
1 103
1 104
1 105
1 106
1 107
1 108
1 109
1 110
1 111
1 112
1 113
1 114
1 115
1 116
1 117
1 118
1 119
1 120
1 121
1 122
1 123
1 124
1 125
1 126
1 127
1 128
1 129
1 130
1 131
1 132
1 133
1 134
1 135
1 136
1 137
1 138
1 139
1 140
1 141
1 142
1 143
1 144
1 145
1 146
1 147
1 148
1 149
1 150
1 151

CELL_TYPES 100
9
9
9
9
9
9
9
9
9
9
9
9
9
9
9
9
9
9
9
9
9
9
9
9
9
9
9
9
9
9
9
9
9
9
9
9
9
9
9
9
9
9
9
9
9
9
9
9
9
9
1
1
1
1
1
1
1
1
1
1
1
1
1
1
1
1
1
1
1
1
1
1
1
1
1
1
1
1
1
1
1
1
1
1
1
1
1
1
1
1
1
1
1
1
1
1
1
1
1
1

CELL_DATA 100

VECTORS S float
-3.7859146669231876e-17 8.78137496302759e-18 4.496868364060542e-17
-6.4587830867548e-19 3.79104176483533e-18 9.7161786878483e-19
-2.066709907479e-20 -1.32167136199283e-18 -1.526543409749e-19
2.42976571003e-21 -8.131685445749e-20 -1.140584370241e-20
3.133588862054e-20 -1.2905112688624299e-18 -1.7690773194621998e-19
-3.573938503993e-20 -1.4351056790024498e-18 -1.7220090743154e-19
-2.5221739149015e-19 -1.3802926189567009e-17 -1.7141436353653699e-18
-2.2064782959658e-19 -1.430657121474425e-17 -1.81082701609077e-18
-5.671079464469999e-20 -4.11155090889602e-18 -5.2753606911853e-19
-4.6159184714492e-19 -3.599760810123912e-17 -4.66806043262871e-18
1.4978889260609999e-19 1.236527612381438e-17 1.6180106026936598e-18
4.8410401634555e-19 4.130954781931122e-17 5.4468532513653094e-18
2.2991301004071e-19 2.028855210737788e-17 2.6939519618493e-18
-8.875201770610999e-20 -7.89973772460948e-18 -1.0554765124324e-18
5.1111000770966e-19 4.678563902554648e-17 6.2909829886299295e-18
-6.270404478060699e-19 -5.898082396276412e-17 -7.98208957026608e-18
-7.9907306353755e-19 -7.691958461245404e-17 -1.038547327044014e-17
3.833418913657e-20 3.7149869813628e-18 5.0744875975512e-19
2.6951270115696e-19 2.5751473966994917e-17 3.55722697136276e-18
5.2373904896392e-19 4.9798693285732145e-17 6.95826341541395e-18
-1.8951421344466e-19 -1.781608343431661e-17 -2.5188615361073997e-18
1.2889211676376e-19 1.2154896058375159e-17 1.7401019950221797e-18
1.3712826055578e-19 1.267089865148262e-17 1.83766820807719e-18
4.4537350627233e-19 4.0168285115471397e-17 5.9055364310580495e-18
-1.9886292834078e-19 -1.760604252370857e-17 -2.62539899662751e-18
-8.912538339007999e-20 -7.747005742373099e-18 -1.17194142958984e-18
-2.9848076063495997e-19 -2.536114662587171e-17 -3.89102719434401e-18
-4.7451852857849e-19 -3.909200919227546e-17 -6.07829037542729e-18
1.2459840925398999e-19 1.01039826891644e-17 1.59057159965549e-18
-2.2383733899721e-19 -1.802524594973555e-17 -2.86869189050115e-18
-3.2974604471968997e-19 -2.6009566711649648e-17 -4.2394788479271e-18
1.8096531104677998e-19 1.554820518852762e-17 2.5554638138303e-18
2.2197758056906e-19 2.0417935668308238e-17 3.3735849545419996e-18
-9.02330814782e-20 -9.149199205895819e-18 -1.51548605566881e-18
-3.0460654718749e-19 -3.418441796321424e-17 -5.66073979600355e-18
-3.307715291545e-20 -4.1105328641663796e-18 -6.787298536168799e-19
6.250219393181e-20 8.49651487212357e-18 1.39568451937228e-18
-1.5637080016494999e-19 -2.303399872034752e-17 -3.7567705925403496e-18
-1.5782689419509998e-20 -2.52847365925653e-18 -4.0881389847811e-19
-1.6103971527881e-19 -2.7700120351484818e-17 -4.4345782332178e-18
-1.488358486408e-19 -2.797513710686076e-17 -4.45446363977019e-18
1.25180976414e-20 2.4598913258468397e-18 3.8691220008021e-19
-8.777046122485999e-20 -1.495360831968252e-17 -2.3237035757465497e-18
-1.1733223989163e-19 -1.953914187393571e-17 -3.0011978133164798e-18
-5.33200175208e-21 -5.6552319020755e-19 -8.592380120555999e-20
-1.9511258981703999e-19 -1.4849685693444908e-17 -2.23401778299628e-18
-7.200167600434999e-20 -4.21984148855491e-18 -6.2928353747281995e-19
-1.7598480970161998e-19 -7.61781148917159e-18 -1.12749407339851e-18
2.3446104646479e-19 7.164073971800459e-18 1.05394765081747e-18
-8.174073706636e-20 -1.2499496112601699e-18 -1.834149206995e-19
-3.7859146669231876e-17 8.78137496302759e-18 4.496868364060542e-17
-6.4587830867548e-19 3.79104176483533e-18 9.7161786878483e-19
-2.066709907479e-20 -1.32167136199283e-18 -1.526543409749e-19
2.42976571003e-21 -8.131685445749e-20 -1.140584370241e-20
3.133588862054e-20 -1.2905112688624299e-18 -1.7690773194621998e-19
-3.573938503993e-20 -1.4351056790024498e-18 -1.7220090743154e-19
-2.5221739149015e-19 -1.3802926189567009e-17 -1.7141436353653699e-18
-2.2064782959658e-19 -1.430657121474425e-17 -1.81082701609077e-18
-5.671079464469999e-20 -4.11155090889602e-18 -5.2753606911853e-19
-4.6159184714492e-19 -3.599760810123912e-17 -4.66806043262871e-18
1.4978889260609999e-19 1.236527612381438e-17 1.6180106026936598e-18
4.8410401634555e-19 4.130954781931122e-17 5.4468532513653094e-18
2.2991301004071e-19 2.028855210737788e-17 2.6939519618493e-18
-8.875201770610999e-20 -7.89973772460948e-18 -1.0554765124324e-18
5.1111000770966e-19 4.678563902554648e-17 6.2909829886299295e-18
-6.270404478060699e-19 -5.898082396276412e-17 -7.98208957026608e-18
-7.9907306353755e-19 -7.691958461245404e-17 -1.038547327044014e-17
3.833418913657e-20 3.7149869813628e-18 5.0744875975512e-19
2.6951270115696e-19 2.5751473966994917e-17 3.55722697136276e-18
5.2373904896392e-19 4.9798693285732145e-17 6.95826341541395e-18
-1.8951421344466e-19 -1.781608343431661e-17 -2.5188615361073997e-18
1.2889211676376e-19 1.2154896058375159e-17 1.7401019950221797e-18
1.3712826055578e-19 1.267089865148262e-17 1.83766820807719e-18
4.4537350627233e-19 4.0168285115471397e-17 5.9055364310580495e-18
-1.9886292834078e-19 -1.760604252370857e-17 -2.62539899662751e-18
-8.912538339007999e-20 -7.747005742373099e-18 -1.17194142958984e-18
-2.9848076063495997e-19 -2.536114662587171e-17 -3.89102719434401e-18
-4.7451852857849e-19 -3.909200919227546e-17 -6.07829037542729e-18
1.2459840925398999e-19 1.01039826891644e-17 1.59057159965549e-18
-2.2383733899721e-19 -1.802524594973555e-17 -2.86869189050115e-18
-3.2974604471968997e-19 -2.6009566711649648e-17 -4.2394788479271e-18
1.8096531104677998e-19 1.554820518852762e-17 2.5554638138303e-18
2.2197758056906e-19 2.0417935668308238e-17 3.3735849545419996e-18
-9.02330814782e-20 -9.149199205895819e-18 -1.51548605566881e-18
-3.0460654718749e-19 -3.418441796321424e-17 -5.66073979600355e-18
-3.307715291545e-20 -4.1105328641663796e-18 -6.787298536168799e-19
6.250219393181e-20 8.49651487212357e-18 1.39568451937228e-18
-1.5637080016494999e-19 -2.303399872034752e-17 -3.7567705925403496e-18
-1.5782689419509998e-20 -2.52847365925653e-18 -4.0881389847811e-19
-1.6103971527881e-19 -2.7700120351484818e-17 -4.4345782332178e-18
-1.488358486408e-19 -2.797513710686076e-17 -4.45446363977019e-18
1.25180976414e-20 2.4598913258468397e-18 3.8691220008021e-19
-8.777046122485999e-20 -1.495360831968252e-17 -2.3237035757465497e-18
-1.1733223989163e-19 -1.953914187393571e-17 -3.0011978133164798e-18
-5.33200175208e-21 -5.6552319020755e-19 -8.592380120555999e-20
-1.9511258981703999e-19 -1.4849685693444908e-17 -2.23401778299628e-18
-7.200167600434999e-20 -4.21984148855491e-18 -6.2928353747281995e-19
-1.7598480970161998e-19 -7.61781148917159e-18 -1.12749407339851e-18
2.3446104646479e-19 7.164073971800459e-18 1.05394765081747e-18
-8.174073706636e-20 -1.2499496112601699e-18 -1.834149206995e-19

SCALARS Gamma float
LOOKUP_TABLE default
-0.00013281467708569473
-0.0041462910618939
0.022719892538421632
-0.004283828556819302
-0.008256212807429126
0.024603613547705686
0.07341716019314629
0.12518818193435852
0.17531971086699774
0.2123960812643951
0.23246419162799511
0.24563648522631268
0.2494297929223179
0.22409565655401822
0.20887708433353339
0.19999873736347995
0.18302897837984614
0.1800732165054069
0.17103777432551012
0.16659303847504547
0.16191546310265953
0.15475539902911722
0.14612563047084587
0.14057939431873784
0.13737928445257436
0.13442239669074435
0.13010107312779068
0.12198866758801055
0.11715034261768241
0.11377373195372555
0.11367565382874391
0.1254522043038825
0.13263690960687236
0.13957782154914966
0.14627085477346669
0.15154875650978542
0.15580536992539046
0.15896407620578124
0.16115871155126074
0.16070482183961898
0.16364444423577099
0.1592747027231327
0.15155090889597553
0.1554582470082447
0.11584011522812268
0.0872272830476507
0.06881796271312256
0.05229055875262061
0.03760703033492817
0.01954077756075914
-0.00013281467708569473
-0.0041462910618939
0.022719892538421632
-0.004283828556819302
-0.008256212807429126
0.024603613547705686
0.07341716019314629
0.12518818193435852
0.17531971086699774
0.2123960812643951
0.23246419162799511
0.24563648522631268
0.2494297929223179
0.22409565655401822
0.20887708433353339
0.19999873736347995
0.18302897837984614
0.1800732165054069
0.17103777432551012
0.16659303847504547
0.16191546310265953
0.15475539902911722
0.14612563047084587
0.14057939431873784
0.13737928445257436
0.13442239669074435
0.13010107312779068
0.12198866758801055
0.11715034261768241
0.11377373195372555
0.11367565382874391
0.1254522043038825
0.13263690960687236
0.13957782154914966
0.14627085477346669
0.15154875650978542
0.15580536992539046
0.15896407620578124
0.16115871155126074
0.16070482183961898
0.16364444423577099
0.1592747027231327
0.15155090889597553
0.1554582470082447
0.11584011522812268
0.0872272830476507
0.06881796271312256
0.05229055875262061
0.03760703033492817
0.01954077756075914

VECTORS Ftot float
0.1632036611616413 -0.012229992033678888 0.1397894486073097
0.23442788181619423 -0.020699950377989964 0.23660151548499894
-0.23079328535692067 -0.011271505542462128 0.1288338978812115
0.08916920360305945 -0.004416902624396577 0.050485428013058685
0.1756738691989225 -0.007524942265882629 0.08601048367430127
-0.37124814459804406 -0.024885940173310823 0.2844475977843435
-1.3433715716513992 -0.058520190316440804 0.6688888360844925
-2.607320579370867 -0.09001326194618596 1.0288562919871027
-4.053789196557518 -0.11984773978555321 1.369865934116658
-5.368724356683692 -0.1427629032808042 1.6317874513937147
-6.359101011916013 -0.1554207921961041 1.776467783738141
-7.210095358224464 -0.16662169077740874 1.904494640360383
-7.810113630182313 -0.17095764459889523 1.954054819322334
-7.438894499038391 -0.15853776632785088 1.8120949610903625
-7.325570709502046 -0.14904774132062987 1.703623478903309
-7.3820372388534965 -0.14350809309807133 1.6403050099805632
-7.080820484759782 -0.13540345113070304 1.5476685283983855
-7.284656625718809 -0.13392203761521343 1.5307358944343212
-7.209521218214105 -0.13033817224083885 1.4897721257591627
-7.299915748387766 -0.12857910207506357 1.4696658617601233
-7.356629654838189 -0.1270370994507973 1.452040691113764
-7.277520302549745 -0.1212757939426463 1.3861886678234088
-7.093847549113748 -0.116726269581172 1.3341873664190682
-7.031750899416965 -0.11458073273101502 1.3096637680042715
-7.069149434128637 -0.11334831596749634 1.2955771799384523
-7.10432338452242 -0.1120992826712127 1.2813006640340394
-7.050719089502903 -0.11010564513223996 1.2585132826908318
-6.768240581507261 -0.1057050927813713 1.2082147391593614
-6.647129027577372 -0.10254921535114102 1.172142895070724
-6.594171258899389 -0.09997402525906422 1.1427083376287324
-6.7255609744297455 -0.09879442184242579 1.1292254088800384
-7.572287527368761 -0.10030989084393495 1.1465472988305023
-8.154297094025612 -0.09977067202264171 1.140383999500487
-8.73131992165063 -0.09639849782314361 1.1018398720262
-9.298993644906925 -0.09281479492121661 1.060877960419615
-9.78033705684869 -0.08869524786203341 1.0137913220694625
-10.196144248270631 -0.0854696272282874 0.9769223095168781
-10.538730112407654 -0.08278622377337995 0.946250867677874
-10.814576349243872 -0.07959886646012668 0.9098192068797991
-10.906328644296961 -0.07640518645834818 0.8733152774211863
-11.222884630533223 -0.07281584882973643 0.8322889605938832
-11.0284056961325 -0.07034505584587522 0.8040476675590527
-10.585661705144224 -0.0800510753507376 0.9149879781512559
-10.946716039806438 -0.0869914174674461 0.9943164515442943
-8.218117113329333 -0.10518490088951511 1.2022689186279727
-6.232080196755158 -0.11379769356052219 1.300713589330427
-4.949527276521351 -0.11987419309755054 1.3701682968563687
-3.785474926603575 -0.1264229025978632 1.4450203889605355
-2.7414098407746925 -0.13164163586488722 1.504670783156783
-1.442113771674026 -0.13925633019455985 1.591707137614485
0.1632036611616413 -0.012229992033678888 0.1397894486073097
0.23442788181619423 -0.020699950377989964 0.23660151548499894
-0.23079328535692067 -0.011271505542462128 0.1288338978812115
0.08916920360305945 -0.004416902624396577 0.050485428013058685
0.1756738691989225 -0.007524942265882629 0.08601048367430127
-0.37124814459804406 -0.024885940173310823 0.2844475977843435
-1.3433715716513992 -0.058520190316440804 0.6688888360844925
-2.607320579370867 -0.09001326194618596 1.0288562919871027
-4.053789196557518 -0.11984773978555321 1.369865934116658
-5.368724356683692 -0.1427629032808042 1.6317874513937147
-6.359101011916013 -0.1554207921961041 1.776467783738141
-7.210095358224464 -0.16662169077740874 1.904494640360383
-7.810113630182313 -0.17095764459889523 1.954054819322334
-7.438894499038391 -0.15853776632785088 1.8120949610903625
-7.325570709502046 -0.14904774132062987 1.703623478903309
-7.3820372388534965 -0.14350809309807133 1.6403050099805632
-7.080820484759782 -0.13540345113070304 1.5476685283983855
-7.284656625718809 -0.13392203761521343 1.5307358944343212
-7.209521218214105 -0.13033817224083885 1.4897721257591627
-7.299915748387766 -0.12857910207506357 1.4696658617601233
-7.356629654838189 -0.1270370994507973 1.452040691113764
-7.277520302549745 -0.1212757939426463 1.3861886678234088
-7.093847549113748 -0.116726269581172 1.3341873664190682
-7.031750899416965 -0.11458073273101502 1.3096637680042715
-7.069149434128637 -0.11334831596749634 1.2955771799384523
-7.10432338452242 -0.1120992826712127 1.2813006640340394
-7.050719089502903 -0.11010564513223996 1.2585132826908318
-6.768240581507261 -0.1057050927813713 1.2082147391593614
-6.647129027577372 -0.10254921535114102 1.172142895070724
-6.594171258899389 -0.09997402525906422 1.1427083376287324
-6.7255609744297455 -0.09879442184242579 1.1292254088800384
-7.572287527368761 -0.10030989084393495 1.1465472988305023
-8.154297094025612 -0.09977067202264171 1.140383999500487
-8.73131992165063 -0.09639849782314361 1.1018398720262
-9.298993644906925 -0.09281479492121661 1.060877960419615
-9.78033705684869 -0.08869524786203341 1.0137913220694625
-10.196144248270631 -0.0854696272282874 0.9769223095168781
-10.538730112407654 -0.08278622377337995 0.946250867677874
-10.814576349243872 -0.07959886646012668 0.9098192068797991
-10.906328644296961 -0.07640518645834818 0.8733152774211863
-11.222884630533223 -0.07281584882973643 0.8322889605938832
-11.0284056961325 -0.07034505584587522 0.8040476675590527
-10.585661705144224 -0.0800510753507376 0.9149879781512559
-10.946716039806438 -0.0869914174674461 0.9943164515442943
-8.218117113329333 -0.10518490088951511 1.2022689186279727
-6.232080196755158 -0.11379769356052219 1.300713589330427
-4.949527276521351 -0.11987419309755054 1.3701682968563687
-3.785474926603575 -0.1264229025978632 1.4450203889605355
-2.7414098407746925 -0.13164163586488722 1.504670783156783
-1.442113771674026 -0.13925633019455985 1.591707137614485

VECTORS D float
0.16244447439012083 -0.01702616227099447 0.1400868735000404
0.20274005287585015 -0.03207374016795988 0.25991523941329225
-0.0025955332602432472 0.0005484411050247424 -0.004396971320454778
0.035853777948781126 -0.009483528537963273 0.0752497590264681
0.053598883974307086 -0.017030443888720666 0.133728176548663
0.04847218520269725 -0.017946788203790455 0.13950664917360525
0.07271359284942543 -0.030606901501120158 0.23575922184071357
0.07983894189874209 -0.037462955672564094 0.2862505084092012
0.08235899595478219 -0.04244179535004514 0.3219324100884607
0.08337524457258327 -0.046659629689304996 0.35156994092982397
0.08073742731288128 -0.048682942760048024 0.3645739149896453
0.08388556159991231 -0.054200201711352425 0.4036048679256159
0.08297608601415857 -0.05720229192112096 0.42371742880768093
0.08024660663673157 -0.05880691475825267 0.4333939688306257
0.07316712265551528 -0.056806268573588184 0.41652014192113557
0.06796795553413032 -0.05572396627114998 0.4064132279291094
0.06578532522402554 -0.05590215568232615 0.4089754219243858
0.06304596687836303 -0.05653287706070818 0.40910945645248287
0.06260338292188158 -0.05904536157956557 0.4226979883094469
0.061139852069596136 -0.060469827892774566 0.4281667574838899
0.06035398321722702 -0.0624350078053321 0.4370662518931726
0.05534585568909901 -0.059773755846987714 0.41342987187126873
0.053723444292386895 -0.06051907135460821 0.4132759188035667
0.0533644910705098 -0.06271204747337432 0.42253033263227313
0.05268711353045215 -0.06467630028954861 0.42973132119754537
0.052060079348277076 -0.06692270534498056 0.43842695129508297
0.05167884554609294 -0.06982108082596845 0.45111931621254586
0.050980549959146845 -0.07272790091277306 0.46376339091337415
0.04974421220038743 -0.07534421873177956 0.474721560631602
0.04835018303364047 -0.07823507074702406 0.48781251846301393
0.04659222364481042 -0.08148399384492244 0.4962873616903032
0.04253532249242948 -0.08170917081869779 0.49413086147973223
0.03931521904143778 -0.08377153681408772 0.5044232693805165
0.03439065089420738 -0.08219216904354705 0.4941578647580194
0.030098028237360318 -0.08172552629069504 0.4919094664079299
0.026244575915479365 -0.0821931783804327 0.49650043135205846
0.02325165505435126 -0.08552815375286711 0.5196288565407648
0.020503017045554524 -0.09059832736881913 0.5546347939464762
0.017371645249299815 -0.09493722807477796 0.5865067456875301
0.014143295658541189 -0.09947420291009382 0.6208414003272464
0.01001091516302325 -0.10447022371256084 0.6557644388000986
0.0068030958092306455 -0.10842424092467366 0.6891141915123233
0.004336010074766827 -0.1325754916637156 0.852992361939968
0.0008570589996654015 -0.14977214654334325 0.9750502437519722
-0.0033662619694927267 -0.18427530877305134 1.213050492949962
-0.007847839750047894 -0.1991943785589194 1.3247455541154298
-0.012062851821021008 -0.2084978800854369 1.3995226281393236
-0.016069934527111307 -0.21759672314643416 1.4726808070535946
-0.01960769415606895 -0.22387315330643826 1.5261109693926336
-0.023121802996662617 -0.2330566696603525 1.5985563537830518
0.16244447439012083 -0.01702616227099447 0.1400868735000404
0.20274005287585015 -0.03207374016795988 0.25991523941329225
-0.0025955332602432472 0.0005484411050247424 -0.004396971320454778
0.035853777948781126 -0.009483528537963273 0.0752497590264681
0.053598883974307086 -0.017030443888720666 0.133728176548663
0.04847218520269725 -0.017946788203790455 0.13950664917360525
0.07271359284942543 -0.030606901501120158 0.23575922184071357
0.07983894189874209 -0.037462955672564094 0.2862505084092012
0.08235899595478219 -0.04244179535004514 0.3219324100884607
0.08337524457258327 -0.046659629689304996 0.35156994092982397
0.08073742731288128 -0.048682942760048024 0.3645739149896453
0.08388556159991231 -0.054200201711352425 0.4036048679256159
0.08297608601415857 -0.05720229192112096 0.42371742880768093
0.08024660663673157 -0.05880691475825267 0.4333939688306257
0.07316712265551528 -0.056806268573588184 0.41652014192113557
0.06796795553413032 -0.05572396627114998 0.4064132279291094
0.06578532522402554 -0.05590215568232615 0.4089754219243858
0.06304596687836303 -0.05653287706070818 0.40910945645248287
0.06260338292188158 -0.05904536157956557 0.4226979883094469
0.061139852069596136 -0.060469827892774566 0.4281667574838899
0.06035398321722702 -0.0624350078053321 0.4370662518931726
0.05534585568909901 -0.059773755846987714 0.41342987187126873
0.053723444292386895 -0.06051907135460821 0.4132759188035667