# vtk DataFile Version 4.0
[MyVLM domain - lattices] 
ASCII
DATASET UNSTRUCTURED_GRID
POINTS 152 float
0.0018916144324157278 0.008090352031021604 -0.0060840962067154995
0.0010688609733395774 0.012347531722129133 -0.0059890202747126635
0.00045780959861706216 0.0165311492244237 -0.005912973417616332
-0.00013255382275044122 0.020605734806068286 -0.005723580794079905
-0.0007201482309470062 0.024586180767223475 -0.005476421224944242
-0.0011946371146526612 0.02843377227701524 -0.005027008994381027
-0.0014108622120167862 0.03206987444679252 -0.004081874702697003
-0.0013224843579428829 0.03556004221847817 -0.0028856727238354743
-0.0010167791708201568 0.03899996193814046 -0.0017955093629138262
-0.0006138083932142036 0.04232563306435112 -0.0005725313476098735
-0.00020084691410191335 0.045566607816772756 0.0006729709368191357
0.0001698744379422134 0.04876001285110078 0.0018024389250027642
0.0004739400232210948 0.05188678221795009 0.002887027708740768
0.0007082255455298663 0.05492574320047549 0.004005754943033722
0.0008836440760600275 0.057879938566515375 0.005147264863713012
0.001017516815515788 0.060764700984590254 0.006254335172844531
0.0011275777072549662 0.06359407370371403 0.0072745557516051326
0.0012277625198140337 0.0663715660265106 0.008194829704303167
0.00132638558954348 0.06908842332411991 0.00904782975064593
0.0014271324949937316 0.07173175009849822 0.009881682544521412
0.0015306083418583354 0.07429303367056488 0.0107281578367672
0.0016355657532635378 0.0767720808157414 0.011587976751327484
0.0017398364473795213 0.0791741038331292 0.012441686723131447
0.0018410131526058282 0.08150513189301689 0.013266786582334569
0.001936923789896676 0.08376959616739656 0.014046738969925386
0.0020259353317291845 0.08596997169181253 0.01477230692750175
0.0021071205190511294 0.08810691302401993 0.015441047612265165
0.002180316672546981 0.09017947516015686 0.016056487826641666
0.0022461021518325993 0.09218538817025403 0.016627099064606046
0.0023056987632523672 0.09412139820298816 0.017165024864617212
0.0023607022647827588 0.09598395114257902 0.017683529367343
0.0024126938092907785 0.09777011056810549 0.01819357144485332
0.0024629658139780817 0.0994781417199182 0.018701625308298588
0.0025123806343549317 0.10110773294612106 0.019208854058389267
0.0025613283706516186 0.10265995440484282 0.019711263810616785
0.0026097549007438213 0.10413703891568758 0.020200521568774513
0.0026572361369983943 0.10554205238080613 0.02066518523026452
0.002703078927872171 0.10687829000313984 0.021092956930288606
0.0027464329900004744 0.10814782332781454 0.021476105557186802
0.0027864017842759935 0.10935029596099906 0.02181596119084466
0.0028221433614242725 0.11048280494637672 0.022123357811728084
0.0028529549202113143 0.11154051750771672 0.022416331586272077
0.002878337166053322 0.11251749588219424 0.022717042547022163
0.0028980365508205295 0.11340643396662957 0.023052757442250337
0.0029120651374179955 0.11419832095945545 0.023457105041222545
0.002920699186668212 0.1148839773446333 0.023964343764183733
0.0029244586304951574 0.11545650065063946 0.02460023398555789
0.002924070395798875 0.11591351963640463 0.025373625297492715
0.0029204190990956736 0.11625861591100176 0.026271150952955055
0.0029144889643634465 0.11650163731950576 0.027256058293780243
0.002907300946956263 0.11665790105747419 0.02827118276791802
0.006212993241944028 0.004312805426422852 0.008013899649606417
0.0072288922610571306 0.007518581305288516 0.01203286802816752
0.007974780507892725 0.01104157710745652 0.01457438863471873
0.008270023946844132 0.014736109642486199 0.016182158537793343
0.008140225139500825 0.01853451702822458 0.017108695319322
0.007751519283975376 0.02233728111080988 0.017725405785792334
0.007318662739924205 0.026023017170007417 0.018485303880382706
0.0069707766105224795 0.02962879447274845 0.01925004521550634
0.006702226685381192 0.033231137149483635 0.019734037848316333
0.006460614097576536 0.03675208379838317 0.02022823769147086
0.006208498480286784 0.04021023085120353 0.020663241916815175
0.005928720355726676 0.04363401645635112 0.020932917909623473
0.00562110152420414 0.04699756222016429 0.021133845149859255
0.005297776270156929 0.05027433941388755 0.021365030201098218
0.004977662142563614 0.05346317675608256 0.021630844345178254
0.004680078492205027 0.05657607026738284 0.021886517823606413
0.0044193472589770496 0.05962436345142987 0.022089716104456755
0.0042022226504668725 0.06260937040574956 0.022235534908996612
0.004028605706719037 0.0655206215787525 0.022363047135690057
0.003894567528214928 0.06834402223592209 0.02252485504987228
0.003794542923454683 0.0710703565431984 0.022755352612489045
0.0037223892098821663 0.07369916209821398 0.023056265532669224
0.0036720478837599236 0.07623575193767544 0.02340776528748122
0.0036379885391020494 0.07868656574934463 0.023785818635013018
0.003615480687410345 0.08105669836799433 0.024171411393036336
0.003600729157216099 0.08334948836441015 0.02455208384575463
0.0035909263662617956 0.08556660480893202 0.024921606937857922
0.003584242976167935 0.08770822355743425 0.025279324366288467
0.00357976601221264 0.089773261175242 0.02562927956429946
0.003577378730160166 0.09175967897817547 0.025979081004830405
0.0035774796054096774 0.09366513364798021 0.026337474070665355
0.003580588564800478 0.09548786617917977 0.026711023459613095
0.0035870678637920984 0.09722726085239843 0.027102027067667133
0.0035969747054953923 0.09888404579399289 0.027507767490269796
0.0036100119296844893 0.10046023493752036 0.027920728625062605
0.0036255480079795204 0.10195889623826543 0.028329460707048146
0.0036426825552804717 0.10338381344451057 0.02871984259539312
0.0036603380175139954 0.10473887747021447 0.029077353201515794
0.003677362157174432 0.10602663215486022 0.029392498787218956
0.0036926294639041822 0.1072470719761345 0.029665299962056697
0.0037051326977571345 0.10839752836728424 0.029905715952734658
0.003714058455611533 0.10947329398822106 0.03013131479163133
0.003718842962038476 0.11046845729267168 0.030364158669789587
0.003719206248598144 0.11137565071601861 0.030631743712690295
0.003715164522496519 0.11218572726122894 0.030968206977996942
0.0037070218583473346 0.11288931042260628 0.03140854206136569
0.003695343396461056 0.11347925447923911 0.03197941715629505
0.003680913018392471 0.11395291341984207 0.03269070731133963
0.0036646790161518838 0.11431357713199741 0.03353013449889103
0.003647691596346039 0.11457079883568656 0.03446204561660282
0.0036310361855396924 0.11473961139666489 0.03543033724569248
0.005410766489344848 0.006991505493535606 0.006008398318986707
0.005892211109850776 0.010569894523098491 0.008489972037041221
0.006132458642509649 0.014308743035040018 0.010079135913229996
0.006047255650667177 0.01812547444817801 0.011084069944040237
0.005720055990603616 0.021954418432667763 0.011749859137002215
0.005325630843128663 0.025698067695782454 0.012440405662680886
0.005016871435172548 0.029323168949192287 0.013279812482641833
0.004834968294868498 0.03289247487791436 0.014033883388089835
0.004732241848104854 0.0364094072307615 0.014689848238604739
0.00464908530328423 0.0398473981037355 0.015346859801758421
0.004547585503985086 0.04323242032381718 0.01590798616764223
0.004411660012619469 0.04656769138732464 0.016361219476523966
0.004242349868979272 0.049828528790072636 0.01679867608808086
0.00405227310746894 0.05300227878461265 0.01726758043069702
0.003859297849485217 0.05609529757768771 0.01774421081786394
0.0036804214720396232 0.0591200094805928 0.0181821990885799
0.003527506244425096 0.062083355162720365 0.01855564231203355
0.003405829147614405 0.06498124566301709 0.018879800698626138
0.003315379723667389 0.06780176310833025 0.019199152356481796
0.003253134023982613 0.07053349001330309 0.019556307921046574
0.003214621311891553 0.07317170880131793 0.019968873627946186
0.0031948391851961662 0.07571886584456737 0.020427719491863783
0.0031888698585714084 0.0781807735984008 0.020911153134118593
0.0031922930777549615 0.08056306505155379 0.021398151954551
0.003201436081938149 0.08286976600705283 0.021873691451725005
0.0032135028026517493 0.08510314552948238 0.022329303361325572
0.003226618152360912 0.08726385916040946 0.02276254116891825
0.0032398057236901635 0.08935116469105496 0.02317617483537644
0.003252904392775423 0.09136320085418684 0.02357715070457661
0.003266372004343082 0.09329747340300429 0.023974777432305937
0.0032809500730880004 0.09515163264902056 0.024377824175378957
0.0032973286136308236 0.0969242041728448 0.024791793541874076
0.0033159342695244357 0.09861497432565165 0.02521748288006233
0.0033368336138182735 0.10022506619318797 0.025650700776875406
0.0033597203855484335 0.10175679835598596 0.026082794171965445
0.0033839603409402744 0.10321340254310271 0.026501702088295352
0.003408672097906746 0.10459855189101515 0.02689371619390998
0.0034328265552422406 0.10591533027577232 0.027247327306709958
0.0034553512046890385 0.10716490396022474 0.027558182874482307
0.003475228953835527 0.10834586274220401 0.027831545843368354
0.0034915839677176984 0.10945447369007617 0.028081347703887267
0.0035037495424018335 0.11048540840407366 0.02832747431469463
0.0035113151685979642 0.11143203173436185 0.028594688392089024
0.003514151750190315 0.11228611110722846 0.02891371431944182
0.003512415433327221 0.11303842641944929 0.02931896199043677
0.0035065316976985676 0.11368077158760112 0.029841056925340483
0.0034971622838568268 0.11420831549803595 0.030498029085744328
0.003485158199815951 0.1146214509003656 0.03128841271014247
0.0034715024876191118 0.11492667264169494 0.03218796869915211
0.003457246657122113 0.11513634613425429 0.03315054870607302

CELLS 100 350
4 0 51 52 1
4 1 52 53 2
4 2 53 54 3
4 3 54 55 4
4 4 55 56 5
4 5 56 57 6
4 6 57 58 7
4 7 58 59 8
4 8 59 60 9
4 9 60 61 10
4 10 61 62 11
4 11 62 63 12
4 12 63 64 13
4 13 64 65 14
4 14 65 66 15
4 15 66 67 16
4 16 67 68 17
4 17 68 69 18
4 18 69 70 19
4 19 70 71 20
4 20 71 72 21
4 21 72 73 22
4 22 73 74 23
4 23 74 75 24
4 24 75 76 25
4 25 76 77 26
4 26 77 78 27
4 27 78 79 28
4 28 79 80 29
4 29 80 81 30
4 30 81 82 31
4 31 82 83 32
4 32 83 84 33
4 33 84 85 34
4 34 85 86 35
4 35 86 87 36
4 36 87 88 37
4 37 88 89 38
4 38 89 90 39
4 39 90 91 40
4 40 91 92 41
4 41 92 93 42
4 42 93 94 43
4 43 94 95 44
4 44 95 96 45
4 45 96 97 46
4 46 97 98 47
4 47 98 99 48
4 48 99 100 49
4 49 100 101 50
1 102
1 103
1 104
1 105
1 106
1 107
1 108
1 109
1 110
1 111
1 112
1 113
1 114
1 115
1 116
1 117
1 118
1 119
1 120
1 121
1 122
1 123
1 124
1 125
1 126
1 127
1 128
1 129
1 130
1 131
1 132
1 133
1 134
1 135
1 136
1 137
1 138
1 139
1 140
1 141
1 142
1 143
1 144
1 145
1 146
1 147
1 148
1 149
1 150
1 151

CELL_TYPES 100
9
9
9
9
9
9
9
9
9
9
9
9
9
9
9
9
9
9
9
9
9
9
9
9
9
9
9
9
9
9
9
9
9
9
9
9
9
9
9
9
9
9
9
9
9
9
9
9
9
9
1
1
1
1
1
1
1
1
1
1
1
1
1
1
1
1
1
1
1
1
1
1
1
1
1
1
1
1
1
1
1
1
1
1
1
1
1
1
1
1
1
1
1
1
1
1
1
1
1
1

CELL_DATA 100

VECTORS S float
9.417046298e-23 2.154753290444e-20 7.98225368913e-21
-2.1142091727202e-19 -1.7071647658794599e-18 -5.6928683433165e-19
1.2384229597329e-19 2.7384600519018098e-18 9.9184175279013e-19
1.6672811278575e-19 9.89804131200477e-18 3.6639861890333596e-18
-1.7086591734024998e-19 -2.2417335886332178e-17 -8.35422487057041e-18
-1.506215358722e-20 -3.44622324814099e-18 -1.28782238705888e-18
-2.6896700261019e-19 -7.4007601809695e-17 -2.7679008339941588e-17
3.8596784555802e-19 1.2088503168705592e-16 4.5259643504392906e-17
4.4558387229848e-19 1.5641491162250257e-16 5.86293619949349e-17
-3.0562706092312e-19 -1.1947140328230605e-16 -4.483923020453468e-17
3.281669025864e-20 1.473120718501369e-17 5.5376220333741894e-18
-1.3680171741676998e-19 -7.341782661028017e-17 -2.7650900009816238e-17
1.8897877462570998e-19 1.105134952965883e-16 4.1707526897501005e-17
1.0204820928198e-19 6.187959867391579e-17 2.340420688743296e-17
1.3313979761195e-19 7.991406687867277e-17 3.029288706071188e-17
-9.510160976767e-20 -5.746500605075082e-17 -2.1825484651796468e-17
1.0607677145789999e-19 6.258576126658964e-17 2.3818956217227998e-17
1.7827126251369998e-19 1.0491637072173891e-16 4.0000740880739275e-17
4.3931082222459996e-20 2.6291377761846098e-17 1.003873536612688e-17
1.1729066418935998e-19 6.824138585183498e-17 2.608561050417222e-17
-9.725890796292999e-20 -5.703471505394077e-17 -2.1819410432975578e-17
1.940907350518e-20 1.12399969581817e-17 4.30216055320406e-18
-4.9820584801179996e-20 -2.9186490140106346e-17 -1.1173925977036399e-17
1.99993019275e-20 1.182865432202178e-17 4.5285916271149395e-18
1.1187934203749999e-20 6.68246931757663e-18 2.5579199790372698e-18
6.111049007437e-20 3.678851571888808e-17 1.4077270851880828e-17
-8.10125765274e-20 -4.9773723078355956e-17 -1.9037553293305058e-17
-7.408564523533999e-20 -4.709735708374647e-17 -1.8004034411946538e-17
-3.0155969148599997e-21 -2.07016115484819e-18 -7.8950295687316e-19
-6.2075128951699995e-21 -4.49429377468611e-18 -1.71244837918415e-18
-4.5835983336269996e-20 -3.457168732782296e-17 -1.31596248766676e-17
6.04842847671e-21 4.83836225230593e-18 1.83970303634437e-18
1.2193084488738999e-19 1.0451697789612853e-16 3.9693520455829696e-17
1.515505091487e-20 1.336822083565569e-17 5.07577310584104e-18
5.83080024875e-21 5.44571262731037e-18 2.0647375220492698e-18
5.4138122882609995e-20 5.3944922918870266e-17 2.04223338965522e-17
3.92806398566e-20 4.138711951788922e-17 1.5643665634812e-17
7.371559830429999e-20 8.228632093952386e-17 3.105327346691065e-17
3.9377176355989996e-20 4.703220274616457e-17 1.772587364443138e-17
3.4186924081099996e-20 4.3258183679065676e-17 1.62783453685008e-17
-1.591105650496e-20 -2.175281197380508e-17 -8.17367671147349e-18
1.873995933016e-20 2.6696176085748617e-17 1.001735548048684e-17
-9.973266798709999e-21 -1.286528783210438e-17 -4.82144319006613e-18
5.251535777382e-20 5.71944500018007e-17 2.141038901068651e-17
7.985848193576999e-20 5.5428846069289075e-17 2.072936784016496e-17
-5.614263713482e-20 -2.913320107913039e-17 -1.088646702629155e-17
-7.350289661995e-20 -2.94702882657941e-17 -1.1008228016661579e-17
1.0599143037004999e-19 3.18864893003081e-17 1.1903049582927729e-17
1.3906689735936e-19 2.976098943314574e-17 1.110552779020237e-17
-3.1973964123414997e-19 -3.434000749930166e-17 -1.281251409560284e-17
9.417046298e-23 2.154753290444e-20 7.98225368913e-21
-2.1142091727202e-19 -1.7071647658794599e-18 -5.6928683433165e-19
1.2384229597329e-19 2.7384600519018098e-18 9.9184175279013e-19
1.6672811278575e-19 9.89804131200477e-18 3.6639861890333596e-18
-1.7086591734024998e-19 -2.2417335886332178e-17 -8.35422487057041e-18
-1.506215358722e-20 -3.44622324814099e-18 -1.28782238705888e-18
-2.6896700261019e-19 -7.4007601809695e-17 -2.7679008339941588e-17
3.8596784555802e-19 1.2088503168705592e-16 4.5259643504392906e-17
4.4558387229848e-19 1.5641491162250257e-16 5.86293619949349e-17
-3.0562706092312e-19 -1.1947140328230605e-16 -4.483923020453468e-17
3.281669025864e-20 1.473120718501369e-17 5.5376220333741894e-18
-1.3680171741676998e-19 -7.341782661028017e-17 -2.7650900009816238e-17
1.8897877462570998e-19 1.105134952965883e-16 4.1707526897501005e-17
1.0204820928198e-19 6.187959867391579e-17 2.340420688743296e-17
1.3313979761195e-19 7.991406687867277e-17 3.029288706071188e-17
-9.510160976767e-20 -5.746500605075082e-17 -2.1825484651796468e-17
1.0607677145789999e-19 6.258576126658964e-17 2.3818956217227998e-17
1.7827126251369998e-19 1.0491637072173891e-16 4.0000740880739275e-17
4.3931082222459996e-20 2.6291377761846098e-17 1.003873536612688e-17
1.1729066418935998e-19 6.824138585183498e-17 2.608561050417222e-17
-9.725890796292999e-20 -5.703471505394077e-17 -2.1819410432975578e-17
1.940907350518e-20 1.12399969581817e-17 4.30216055320406e-18
-4.9820584801179996e-20 -2.9186490140106346e-17 -1.1173925977036399e-17
1.99993019275e-20 1.182865432202178e-17 4.5285916271149395e-18
1.1187934203749999e-20 6.68246931757663e-18 2.5579199790372698e-18
6.111049007437e-20 3.678851571888808e-17 1.4077270851880828e-17
-8.10125765274e-20 -4.9773723078355956e-17 -1.9037553293305058e-17
-7.408564523533999e-20 -4.709735708374647e-17 -1.8004034411946538e-17
-3.0155969148599997e-21 -2.07016115484819e-18 -7.8950295687316e-19
-6.2075128951699995e-21 -4.49429377468611e-18 -1.71244837918415e-18
-4.5835983336269996e-20 -3.457168732782296e-17 -1.31596248766676e-17
6.04842847671e-21 4.83836225230593e-18 1.83970303634437e-18
1.2193084488738999e-19 1.0451697789612853e-16 3.9693520455829696e-17
1.515505091487e-20 1.336822083565569e-17 5.07577310584104e-18
5.83080024875e-21 5.44571262731037e-18 2.0647375220492698e-18
5.4138122882609995e-20 5.3944922918870266e-17 2.04223338965522e-17
3.92806398566e-20 4.138711951788922e-17 1.5643665634812e-17
7.371559830429999e-20 8.228632093952386e-17 3.105327346691065e-17
3.9377176355989996e-20 4.703220274616457e-17 1.772587364443138e-17
3.4186924081099996e-20 4.3258183679065676e-17 1.62783453685008e-17
-1.591105650496e-20 -2.175281197380508e-17 -8.17367671147349e-18
1.873995933016e-20 2.6696176085748617e-17 1.001735548048684e-17
-9.973266798709999e-21 -1.286528783210438e-17 -4.82144319006613e-18
5.251535777382e-20 5.71944500018007e-17 2.141038901068651e-17
7.985848193576999e-20 5.5428846069289075e-17 2.072936784016496e-17
-5.614263713482e-20 -2.913320107913039e-17 -1.088646702629155e-17
-7.350289661995e-20 -2.94702882657941e-17 -1.1008228016661579e-17
1.0599143037004999e-19 3.18864893003081e-17 1.1903049582927729e-17
1.3906689735936e-19 2.976098943314574e-17 1.110552779020237e-17
-3.1973964123414997e-19 -3.434000749930166e-17 -1.281251409560284e-17

SCALARS Gamma float
LOOKUP_TABLE default
0.00023017121214577945
0.0004715390812972314
0.002511130254098395
0.009611645745476956
0.03840994428865177
0.11620906464677039
0.19305170272304917
0.26577115925499784
0.3199406339501345
0.35441744969796996
0.380857155329341
0.408978152757643
0.4184814512553978
0.40288476286295705
0.3931997463375824
0.38028124053442247
0.36934039665780344
0.35582675735017305
0.3447313797780558
0.3297424713526504
0.3123991461099542
0.29960474940757925
0.28782176705681045
0.27482292644122513
0.2608336889655888
0.24866231468715416
0.240060073806332
0.23474526383675332
0.22939964299570959
0.22468398696031083
0.21582788979848735
0.21463440490614877
0.20767603042766056
0.20248598256440037
0.19806492244704463
0.19421124211331753
0.1907962613424344
0.18775362287383626
0.18561115436291245
0.1809163216286993
0.17907441781510314
0.17410475369564438
0.17146558104916854
0.1500940513813559
0.1114483322493014
0.0866344694089581
0.06887494936323431
0.052628755452615604
0.0380375235160334
0.019815796563720883
0.00023017121214577945
0.0004715390812972314
0.002511130254098395
0.009611645745476956
0.03840994428865177
0.11620906464677039
0.19305170272304917
0.26577115925499784
0.3199406339501345
0.35441744969796996
0.380857155329341
0.408978152757643
0.4184814512553978
0.40288476286295705
0.3931997463375824
0.38028124053442247
0.36934039665780344
0.35582675735017305
0.3447313797780558
0.3297424713526504
0.3123991461099542
0.29960474940757925
0.28782176705681045
0.27482292644122513
0.2608336889655888
0.24866231468715416
0.240060073806332
0.23474526383675332
0.22939964299570959
0.22468398696031083
0.21582788979848735
0.21463440490614877
0.20767603042766056
0.20248598256440037
0.19806492244704463
0.19421124211331753
0.1907962613424344
0.18775362287383626
0.18561115436291245
0.1809163216286993
0.17907441781510314
0.17410475369564438
0.17146558104916854
0.1500940513813559
0.1114483322493014
0.0866344694089581
0.06887494936323431
0.052628755452615604
0.0380375235160334
0.019815796563720883

VECTORS Ftot float
-0.0010475114866299235 -0.00025720265471063135 0.0007066584860412465
0.012771273603468709 -0.018873730002405404 0.05185514700249229
0.005083272646151442 -0.04698911946493601 0.12910154468996787
-0.080076280719529 -0.07915060983084889 0.21746451324632124
-0.5056831734011613 -0.1612893040603322 0.4431387209053153
-1.8934289985841557 -0.3098567727103834 0.8513244862868651
-3.6097219946136327 -0.4759647880162764 1.3077025075302307
-5.583814430594159 -0.6220163768222721 1.7089759498501769
-7.440220810360721 -0.7102158192886582 1.9513019264350608
-9.01817306729632 -0.740242928842312 2.0338007319052154
-10.513656650668306 -0.7139139575894511 1.9614624779105099
-12.159543785910033 -0.6517193865153236 1.790584298271678
-13.291973904105737 -0.6161160674499866 1.692764983082026
-13.588122798702674 -0.5723000138457547 1.5723813651947849
-14.009476900936248 -0.5626677264071578 1.5459168729595436
-14.257526237420983 -0.5423610965948371 1.4901248660849684
-14.513893252267428 -0.539017627510412 1.4809387602728656
-14.61047145402688 -0.5225179047761622 1.4356061446332522
-14.748177115891398 -0.502320394326128 1.380113940742584
-14.653731476836047 -0.5013493533891228 1.377446027694796
-14.389148664576563 -0.48032060630813267 1.3196700199303533
-14.268765974344518 -0.4774130994601522 1.3116817105186171
-14.146002092709761 -0.4656138819747626 1.2792636269102748
-13.912147422389825 -0.4534817514514196 1.245930872247514
-13.575723358078093 -0.4397879037065149 1.2083073347829383
-13.284467195153228 -0.4298829891609282 1.1810938057273113
-13.144562605232817 -0.4206456594975981 1.1557144510612534
-13.155722270620053 -0.4115363605649327 1.1306868579366929
-13.142358393942654 -0.40040309726706275 1.100098468420952
-13.14090168183541 -0.3872971151158787 1.0640900784007985
-12.870055758786087 -0.3723990252818885 1.023157912988904
-13.035248093747565 -0.3647083767539374 1.002028029817396
-12.831855251894348 -0.34461975930436795 0.9468350069866417
-12.715483287739652 -0.33377225221832624 0.9170317262103681
-12.62789683239173 -0.32421155793102807 0.8907639345417074
-12.559882335164781 -0.31407633448690603 0.862917636987855
-12.504762779532662 -0.30824946573254675 0.8469084466591269
-12.460166955957115 -0.30295352954639393 0.8323579815727993
-12.463417365439614 -0.2940114681193797 0.8077898697187017
-12.281336651844073 -0.2863595455904183 0.786766385354964
-12.280332101254142 -0.27747592314616676 0.7623588332864224
-12.052090329888902 -0.273339743677746 0.7509947735941245
-11.972390931269738 -0.31297004191404676 0.8598781231246136
-10.564229065477715 -0.3403354073957266 0.9350638468606525
-7.9034973047553905 -0.41397833197685 1.1373961192498894
-6.187520807730241 -0.4470135567941657 1.2281596534820716
-4.95240904339629 -0.46995956462533833 1.2912032918648475
-3.8092874675539763 -0.49426653616165295 1.3579861472961985
-2.772100038252449 -0.5131904752177677 1.4099792425400095
-1.460919578089803 -0.541841629941255 1.4886976431840915
-0.0010475114866299235 -0.00025720265471063135 0.0007066584860412465
0.012771273603468709 -0.018873730002405404 0.05185514700249229
0.005083272646151442 -0.04698911946493601 0.12910154468996787
-0.080076280719529 -0.07915060983084889 0.21746451324632124
-0.5056831734011613 -0.1612893040603322 0.4431387209053153
-1.8934289985841557 -0.3098567727103834 0.8513244862868651
-3.6097219946136327 -0.4759647880162764 1.3077025075302307
-5.583814430594159 -0.6220163768222721 1.7089759498501769
-7.440220810360721 -0.7102158192886582 1.9513019264350608
-9.01817306729632 -0.740242928842312 2.0338007319052154
-10.513656650668306 -0.7139139575894511 1.9614624779105099
-12.159543785910033 -0.6517193865153236 1.790584298271678
-13.291973904105737 -0.6161160674499866 1.692764983082026
-13.588122798702674 -0.5723000138457547 1.5723813651947849
-14.009476900936248 -0.5626677264071578 1.5459168729595436
-14.257526237420983 -0.5423610965948371 1.4901248660849684
-14.513893252267428 -0.539017627510412 1.4809387602728656
-14.61047145402688 -0.5225179047761622 1.4356061446332522
-14.748177115891398 -0.502320394326128 1.380113940742584
-14.653731476836047 -0.5013493533891228 1.377446027694796
-14.389148664576563 -0.48032060630813267 1.3196700199303533
-14.268765974344518 -0.4774130994601522 1.3116817105186171
-14.146002092709761 -0.4656138819747626 1.2792636269102748
-13.912147422389825 -0.4534817514514196 1.245930872247514
-13.575723358078093 -0.4397879037065149 1.2083073347829383
-13.284467195153228 -0.4298829891609282 1.1810938057273113
-13.144562605232817 -0.4206456594975981 1.1557144510612534
-13.155722270620053 -0.4115363605649327 1.1306868579366929
-13.142358393942654 -0.40040309726706275 1.100098468420952
-13.14090168183541 -0.3872971151158787 1.0640900784007985
-12.870055758786087 -0.3723990252818885 1.023157912988904
-13.035248093747565 -0.3647083767539374 1.002028029817396
-12.831855251894348 -0.34461975930436795 0.9468350069866417
-12.715483287739652 -0.33377225221832624 0.9170317262103681
-12.62789683239173 -0.32421155793102807 0.8907639345417074
-12.559882335164781 -0.31407633448690603 0.862917636987855
-12.504762779532662 -0.30824946573254675 0.8469084466591269
-12.460166955957115 -0.30295352954639393 0.8323579815727993
-12.463417365439614 -0.2940114681193797 0.8077898697187017
-12.281336651844073 -0.2863595455904183 0.786766385354964
-12.280332101254142 -0.27747592314616676 0.7623588332864224
-12.052090329888902 -0.273339743677746 0.7509947735941245
-11.972390931269738 -0.31297004191404676 0.8598781231246136
-10.564229065477715 -0.3403354073957266 0.9350638468606525
-7.9034973047553905 -0.41397833197685 1.1373961192498894
-6.187520807730241 -0.4470135567941657 1.2281596534820716
-4.95240904339629 -0.46995956462533833 1.2912032918648475
-3.8092874675539763 -0.49426653616165295 1.3579861472961985
-2.772100038252449 -0.5131904752177677 1.4099792425400095
-1.460919578089803 -0.541841629941255 1.4886976431840915

VECTORS D float
0.0001052914984706381 -8.190072619743565e-5 0.00021984308089171382
0.016324756237076753 -0.018925719706894852 0.05069136536156862
0.030153488480915095 -0.04603217748603615 0.12332915160949666
0.038959372735266756 -0.0732182858883096 0.19602202594947016
0.06044164647209929 -0.13379487700828033 0.35778271793048233
0.08762913450657343 -0.22109628497016665 0.5906305725871529
0.11640662657239415 -0.3227263166035645 0.8617682721260146
0.13439525474611894 -0.40386365276687697 1.0775426945268127
0.1365962104024979 -0.4374605511729559 1.1660452383497346
0.12626493529864485 -0.4254194615446896 1.1326436658615509
0.10255682138016532 -0.3607226354770854 0.9589882213142243
0.0700558963788119 -0.2564074851069637 0.6804587376737002
0.052230221533752806 -0.19877460007830358 0.5264614581807432
0.0406855169981045 -0.161129189762959 0.42584043804463656
0.037683132585678736 -0.15562176575748068 0.4103719479414479
0.03383817899595255 -0.14636555650722483 0.3852230389909359
0.03403423407981579 -0.15421062904799474 0.4050462700678735
0.03225501699059865 -0.15342181073031413 0.4022602850470854
0.029503768254663363 -0.14740471257538756 0.3859227988815405
0.03169311509510001 -0.1661605440255124 0.4345425800888604
0.030298989775438247 -0.16632863029192488 0.4346386542608774
0.03140875542443781 -0.1799782378190659 0.470076652363964
0.030630250737068182 -0.18253169316962137 0.4766394064980473
0.030007875635794184 -0.18522839789444512 0.48368294894050945
0.029299434417854528 -0.18662120348590247 0.4874126932729696
0.028936744268080142 -0.18960652708052367 0.4953782900575875
0.028156301518456796 -0.18946829180011004 0.4952454303553788
0.02696828786964696 -0.1863904351910317 0.48747401384411815
0.025621903869881467 -0.1829804195646602 0.4796963558518559
0.024027027436042212 -0.17856788995807818 0.468561515703649
0.022831386778161145 -0.1779413724543042 0.4673907538971976
0.02170178210933905 -0.1791307506133972 0.4710370006455612
0.01973459991497544 -0.17460238405979148 0.4596847810274687
0.018657996606466196 -0.18072170950889874 0.475916655305925
0.017508740024062615 -0.18808171429489437 0.4960131084941658
0.016069112476442937 -0.19558567829349077 0.5165905347269129
0.014702890586409105 -0.20802003138424358 0.5503040376232281
0.013027341914653526 -0.22112129139484177 0.5859059352103932
0.01075566899564624 -0.2308743338556853 0.6125568290013453
0.008493873159918145 -0.24117744165577437 0.6408887055058582
0.006052017478421201 -0.24829981952162633 0.6607947908693262
0.003692041318073754 -0.25959557194677724 0.691813315856376
0.0015326470204378101 -0.31390947168463107 0.8376165106061456
-0.001264084823946697 -0.3534848947163387 0.9442817928726625
-0.004838402359909038 -0.43474791428390885 1.1625034488781092
-0.008378690046381776 -0.4709322971136714 1.2603019579344716
-0.011966798513609532 -0.49538528419370037 1.3262830947975213
-0.01517749950462013 -0.5189074482607313 1.3902105814489734
-0.017964800051539945 -0.5357730152539405 1.436008594621813
-0.020831131346005956 -0.5601545147059902 1.5018419203798803
0.0001052914984706381 -8.190072619743565e-5 0.00021984308089171382
0.016324756237076753 -0.018925719706894852 0.05069136536156862
0.030153488480915095 -0.04603217748603615 0.12332915160949666
0.038959372735266756 -0.0732182858883096 0.19602202594947016
0.06044164647209929 -0.13379487700828033 0.35778271793048233
0.08762913450657343 -0.22109628497016665 0.5906305725871529
0.11640662657239415 -0.3227263166035645 0.8617682721260146
0.13439525474611894 -0.40386365276687697 1.0775426945268127
0.1365962104024979 -0.4374605511729559 1.1660452383497346
0.12626493529864485 -0.4254194615446896 1.1326436658615509
0.10255682138016532 -0.3607226354770854 0.9589882213142243
0.0700558963788119 -0.2564074851069637 0.6804587376737002
0.052230221533752806 -0.19877460007830358 0.5264614581807432
0.0406855169981045 -0.161129189762959 0.42584043804463656
0.037683132585678736 -0.15562176575748068 0.4103719479414479
0.03383817899595255 -0.14636555650722483 0.3852230389909359
0.03403423407981579 -0.15421062904799474 0.4050462700678735
0.03225501699059865 -0.15342181073031413 0.4022602850470854
0.029503768254663363 -0.14740471257538756 0.3859227988815405
0.03169311509510001 -0.1661605440255124 0.4345425800888604
0.030298989775438247 -0.16632863029192488 0.4346386542608774
0.03140875542443781 -0.1799782378190659 0.470076652363964
0.030630250737068182 -0.18253169316962137 0.4766394064980473
0.030007875635794184 -0.18522839789444512 0.48368294894050945
0.029299434417854528 -0.18662120348590247 0.4874126932729696
0.028936744268080142 -0.18960652708052367 0.4953782900575875