# vtk DataFile Version 4.0
[MyVLM domain - lattices] 
ASCII
DATASET UNSTRUCTURED_GRID
POINTS 152 float
0.0018916144324157278 -0.008484243670807221 -0.005521560646483345
0.0010688609733395774 -0.009850942727205523 -0.009554518871467193
0.00045780959861706216 -0.011210363514512694 -0.013511842923527766
-0.00013255382275044122 -0.012425983008371002 -0.01740547701960664
-0.0007201482309470062 -0.013555121683231959 -0.02123040626800137
-0.0011946371146526612 -0.014448766126118362 -0.024999667653060782
-0.0014108622120167862 -0.014804250591825156 -0.028739740996327937
-0.0013224843579428829 -0.014873896100822018 -0.03242855106894245
-0.0010167791708201568 -0.015025999470660455 -0.03603387607455588
-0.0006138083932142036 -0.01501422256953653 -0.039577267807095244
-0.00020084691410191335 -0.014952311913024702 -0.04304877473593218
0.0001698744379422134 -0.014983168026652411 -0.04643589468507115
0.0004739400232210948 -0.015033406056982744 -0.04974504799726239
0.0007082255455298663 -0.015021532201049863 -0.05298336445641304
0.0008836440760600275 -0.014959258074538602 -0.05614981942891909
0.001017516815515788 -0.014905599130047006 -0.059239249731705364
0.0011275777072549662 -0.014914607843528174 -0.06224692638589046
0.0012277625198140337 -0.014999791523405168 -0.0651716676551126
0.00132638558954348 -0.015127453596650547 -0.0680164216075114
0.0014271324949937316 -0.01524795928165348 -0.07078553072379434
0.0015306083418583354 -0.015328543270268427 -0.07348186159698113
0.0016355657532635378 -0.015368461840948328 -0.07610547929427593
0.0017398364473795213 -0.015387777136831319 -0.07865462860558813
0.0018410131526058282 -0.015409695438865592 -0.08112727924441215
0.001936923789896676 -0.015451272331361326 -0.08352193904047106
0.0020259353317291845 -0.015522034227979152 -0.08583777454056549
0.0021071205190511294 -0.015624500522007768 -0.08807456532634371
0.002180316672546981 -0.015755033892876164 -0.0902326296221213
0.0022461021518325993 -0.015904897378435784 -0.09231273181303991
0.0023056987632523672 -0.016061566902510583 -0.09431596761378608
0.0023607022647827588 -0.016211362670805394 -0.09624353385128
0.0024126938092907785 -0.016342982396999682 -0.09809641934744663
0.0024629658139780817 -0.016449748989906077 -0.09987520827207022
0.0025123806343549317 -0.01653046290114356 -0.10158000557203546
0.0025613283706516186 -0.016589243170149672 -0.1032104508780869
0.0026097549007438213 -0.016634683921249838 -0.10476579230177321
0.0026572361369983943 -0.01667858581411466 -0.10624499741915101
0.002703078927872171 -0.016733632087328698 -0.10764695659062744
0.0027464329900004744 -0.01680779611963016 -0.10897097223595281
0.0027864017842759935 -0.016899706150896306 -0.11021716436858703
0.0028221433614242725 -0.016998188700094098 -0.11138651054145254
0.0028529549202113143 -0.017084642407898178 -0.1124806381626165
0.002878337166053322 -0.01713621282075676 -0.1135015467376758
0.0028980365508205295 -0.017124778742069142 -0.11445169655253773
0.0029120651374179955 -0.017015657589866496 -0.11533412193994644
0.002920699186668212 -0.016773517400053683 -0.11615191404622033
0.0029244586304951574 -0.016371790554575976 -0.11690739723675604
0.002924070395798875 -0.01580135014478484 -0.11760137001259341
0.0029204190990956736 -0.015075981786679701 -0.11823262628861275
0.0029144889643634465 -0.014233589843316139 -0.11879784986274851
0.002907300946956263 -0.013333130211846263 -0.11929188276235189
0.006212993241944028 0.006055536034373108 -0.0067936265408509704
0.0072288922610571306 0.008735691037319308 -0.011180638618971343
0.007974780507892725 0.009919003667677593 -0.01536042301944618
0.008270023946844132 0.010166208634366304 -0.019382037672551342
0.008140225139500825 0.009737736572376005 -0.02326826730648337
0.007751519283975376 0.009016632930320095 -0.02705262405561113
0.007318662739924205 0.008470107587128625 -0.030775983487828333
0.0069707766105224795 0.007955480906670349 -0.03442586275245749
0.006702226685381192 0.0071782114536315155 -0.03797649281296998
0.006460614097576536 0.006438372721938739 -0.04145412669830901
0.006208498480286784 0.005664387031858632 -0.04485250217293642
0.005928720355726676 0.004746795928914775 -0.048162042862958436
0.00562110152420414 0.0037852053696574013 -0.05139146316039288
0.005297776270156929 0.0028817244508991665 -0.05454969645365372
0.004977662142563614 0.0020408614357719282 -0.057637137164657196
0.004680078492205027 0.0012164436318890801 -0.060649745706255
0.0044193472589770496 0.00036480988525411053 -0.06358370222243598
0.0042022226504668725 -0.0005190977664924927 -0.06643856419883314
0.004028605706719037 -0.0013949820114561623 -0.06921785719340783
0.003894567528214928 -0.0022085922059452896 -0.07192632752247204
0.003794542923454683 -0.0029244565977735006 -0.07456707856221748
0.0037223892098821663 -0.003540795399882782 -0.07714026602383521
0.0036720478837599236 -0.00407805849452893 -0.07964410077445742
0.0036379885391020494 -0.0045610322447215 -0.08207641428831074
0.003615480687410345 -0.005009326673309906 -0.08443549091070433
0.003600729157216099 -0.005435791941743846 -0.08672020639818691
0.0035909263662617956 -0.0058468523030094505 -0.08892999870145053
0.003584242976167935 -0.0062431846264984206 -0.09106480860209676
0.00357976601221264 -0.006620618771337307 -0.09312500094017731
0.003577378730160166 -0.006971307840594064 -0.0951112622302176
0.0035774796054096774 -0.0072862324005552965 -0.09702438157041897
0.003580588564800478 -0.007558622037827252 -0.09886495129520076
0.0035870678637920984 -0.0077861068480723425 -0.10063317874432616
0.0035969747054953923 -0.007971489390182005 -0.10232881872566331
0.0036100119296844893 -0.008122521295923455 -0.10395119305930871
0.0036255480079795204 -0.008251011127480636 -0.10549926862993875
0.0036426825552804717 -0.00837152253482156 -0.1069717712832817
0.0036603380175139954 -0.00849903164868209 -0.10836739077767465
0.003677362157174432 -0.008643329709134416 -0.10968527049060942
0.0036926294639041822 -0.008804395460790234 -0.11092541228169155
0.0037051326977571345 -0.008971957588222185 -0.11208871477458042
0.003714058455611533 -0.009127897535910742 -0.11317676313748344
0.003718842962038476 -0.009249461757830904 -0.11419154804773284
0.003719206248598144 -0.00930829249226165 -0.11513555048800217
0.003715164522496519 -0.00926918294078505 -0.11601185065403206
0.0037070218583473346 -0.009096042925966087 -0.11682360602721267
0.003695343396461056 -0.008761368562674206 -0.11757322288569587
0.003680913018392471 -0.008254975351493651 -0.11826159225772422
0.0036646790161518838 -0.007589526072188265 -0.11888760629361964
0.003647691596346039 -0.006801791075608373 -0.11944804800452889
0.0036310361855396924 -0.005949631873285036 -0.11993785516413849
0.005410766489344848 0.003254811852133064 -0.008624859374677185
0.005892211109850776 0.004362847234159062 -0.012836193338780943
0.006132458642509649 0.004577411297905999 -0.016893087752390873
0.006047255650667177 0.004216341366077998 -0.020823349778089018
0.005720055990603616 0.003532402587342246 -0.024649093500918207
0.005325630843128663 0.002900900604300331 -0.028403153909963393
0.005016871435172548 0.0024498273485937185 -0.03209672884826598
0.004834968294868498 0.0019376476886778895 -0.035708686729972586
0.004732241848104854 0.001351191310814224 -0.03923787530193601
0.00464908530328423 0.00079271809735386 -0.04269324114459547
0.004547585503985086 0.0001622586178303877 -0.04606603806608598
0.004411660012619469 -0.0005525712734898285 -0.04935518259404844
0.004242349868979272 -0.0012567685995453638 -0.052568986411976895
0.00405227310746894 -0.001901629076946897 -0.05571171059253311
0.003859297849485217 -0.0025116177502003244 -0.058781214721670125
0.0036804214720396232 -0.0031345558027682002 -0.0617733149879586
0.003527506244425096 -0.003797157876331063 -0.0646856741631013
0.003405829147614405 -0.004483685556737711 -0.06751966917991836
0.003315379723667389 -0.00514826694131355 -0.07027931330986817
0.003253134023982613 -0.005746956120384786 -0.0729684513218555
0.003214621311891553 -0.006261595138023201 -0.07558867183117689
0.0031948391851961662 -0.00670160008262685 -0.07813915103684275
0.0031888698585714084 -0.007089343099181026 -0.0806179316297881
0.0031922930777549615 -0.007446505565540143 -0.08302311673524106
0.003201436081938149 -0.007788582800562717 -0.0853533506884638
0.0032135028026517493 -0.008124308435530853 -0.0876078693957277
0.003226618152360912 -0.008456205650425944 -0.08978645210738836
0.0032398057236901635 -0.00878141768310239 -0.09188934875774793
0.003252904392775423 -0.009092780514592561 -0.09391718611725135
0.003266372004343082 -0.009380693787095508 -0.09587080410837198
0.0032809500730880004 -0.00963611354786909 -0.09775099397444824
0.0032973286136308236 -0.009853364755575567 -0.09955825221726221
0.0033159342695244357 -0.010031625075726585 -0.10129265078175927
0.0033368336138182735 -0.010175217266201202 -0.1029538114756298
0.0033597203855484335 -0.010293065545201473 -0.10454095353095032
0.0033839603409402744 -0.010397608840283887 -0.10605298868257321
0.003408672097906746 -0.01050298505649429 -0.10748868002408092
0.0034328265552422406 -0.010621064035051047 -0.10884698907892905
0.0034553512046890385 -0.010756334722537552 -0.11012752311518034
0.003475228953835527 -0.010903369249753459 -0.11133075700985694
0.0034915839677176984 -0.011047799560048883 -0.1124579478050326
0.0035037495424018335 -0.011169116638734985 -0.11351088980699266
0.0035113151685979642 -0.011241781789137947 -0.11449181736217734
0.003514151750190315 -0.01123410782888447 -0.11540350273982337
0.003512415433327221 -0.011110606573771699 -0.11624905075373762
0.0035065316976985676 -0.010839692802568817 -0.11703122475271276
0.0034971622838568268 -0.010402771555233049 -0.11775165158495124
0.003485158199815951 -0.009801354525313787 -0.11841019899440473
0.0034715024876191118 -0.00906044038417322 -0.11900467988072587
0.003457246657122113 -0.008227623612730328 -0.11953093026638784

CELLS 100 350
4 0 51 52 1
4 1 52 53 2
4 2 53 54 3
4 3 54 55 4
4 4 55 56 5
4 5 56 57 6
4 6 57 58 7
4 7 58 59 8
4 8 59 60 9
4 9 60 61 10
4 10 61 62 11
4 11 62 63 12
4 12 63 64 13
4 13 64 65 14
4 14 65 66 15
4 15 66 67 16
4 16 67 68 17
4 17 68 69 18
4 18 69 70 19
4 19 70 71 20
4 20 71 72 21
4 21 72 73 22
4 22 73 74 23
4 23 74 75 24
4 24 75 76 25
4 25 76 77 26
4 26 77 78 27
4 27 78 79 28
4 28 79 80 29
4 29 80 81 30
4 30 81 82 31
4 31 82 83 32
4 32 83 84 33
4 33 84 85 34
4 34 85 86 35
4 35 86 87 36
4 36 87 88 37
4 37 88 89 38
4 38 89 90 39
4 39 90 91 40
4 40 91 92 41
4 41 92 93 42
4 42 93 94 43
4 43 94 95 44
4 44 95 96 45
4 45 96 97 46
4 46 97 98 47
4 47 98 99 48
4 48 99 100 49
4 49 100 101 50
1 102
1 103
1 104
1 105
1 106
1 107
1 108
1 109
1 110
1 111
1 112
1 113
1 114
1 115
1 116
1 117
1 118
1 119
1 120
1 121
1 122
1 123
1 124
1 125
1 126
1 127
1 128
1 129
1 130
1 131
1 132
1 133
1 134
1 135
1 136
1 137
1 138
1 139
1 140
1 141
1 142
1 143
1 144
1 145
1 146
1 147
1 148
1 149
1 150
1 151

CELL_TYPES 100
9
9
9
9
9
9
9
9
9
9
9
9
9
9
9
9
9
9
9
9
9
9
9
9
9
9
9
9
9
9
9
9
9
9
9
9
9
9
9
9
9
9
9
9
9
9
9
9
9
9
1
1
1
1
1
1
1
1
1
1
1
1
1
1
1
1
1
1
1
1
1
1
1
1
1
1
1
1
1
1
1
1
1
1
1
1
1
1
1
1
1
1
1
1
1
1
1
1
1
1

CELL_DATA 100

VECTORS S float
-1.752422720558226e-17 2.06999874789032e-17 -5.05797458677573e-18
-1.51192115404e-18 1.5089806272562e-18 -7.97533850056361e-18
-6.6244461649099995e-21 -1.132884195438e-20 3.7851866969209997e-19
5.68629862454e-21 -1.034419684187e-20 1.824190184863e-19
-9.43538908946e-21 3.371238455978e-20 -6.9404765903028e-19
1.0949682184189999e-20 9.94217612102e-21 -3.1124607678642e-19
-1.071468900434e-20 -1.943026780693e-20 4.9519068197557e-19
6.423800214091e-20 1.4969572107406998e-19 -3.51774914538045e-18
-9.01563791104e-21 -2.440024162973e-20 5.3940880431008e-19
-1.5323819179823999e-19 -4.5774367054866e-19 9.58947322815654e-18
2.073757501399e-20 6.678231993536e-20 -1.3286600126869298e-18
-1.7961947908706998e-19 -6.0992968039535e-19 1.153819449849398e-17
5.962274854644999e-20 2.1413844170442998e-19 -3.85124131970242e-18
4.4602311597878e-19 1.62439399405653e-18 -2.784809105910456e-17
7.899217625180999e-20 2.9901119545094e-19 -4.8821564303172e-18
-1.0799857888325999e-19 -4.2521205272798e-19 6.6157671731052895e-18
1.6032897866711999e-19 6.3854866642003995e-19 -9.48433887503293e-18
1.5433409213365998e-19 6.3766560945406e-19 -8.996949648099569e-18
-9.880355537447e-20 -4.1771425263225996e-19 5.6373216890599795e-18
-2.4618076681181996e-19 -1.1180896437682e-18 1.446428529749563e-17
-2.2926082100167e-19 -1.08290727630093e-18 1.3496188577531859e-17
-8.800943771277999e-20 -4.419605280175e-19 5.3236315030196e-18
2.2242914620904997e-19 1.1681724872898999e-18 -1.365762456520552e-17
-4.2312945860431998e-19 -2.3184545385552e-18 2.609182425380066e-17
-2.0017509439778998e-19 -1.1657925499298199e-18 1.2818428773967099e-17
1.3819161502672e-19 8.5211502553646e-19 -9.214918149762649e-18
-2.33818205263e-21 -1.521226462538e-20 1.6272648928249e-19
-1.3182956081265e-19 -9.011312526442299e-19 9.582584316632519e-18
-1.6431847396762998e-19 -1.18843312147522e-18 1.2615079522063119e-17
-3.565609148758e-20 -2.7370146218077997e-19 2.91040636582133e-18
1.0932700065998e-19 8.9096607867066e-19 -9.519029604247659e-18
7.554147093211e-20 6.943605848946299e-19 -7.346836600915119e-18
-1.2587504175682e-19 -1.23982519875496e-18 1.3397524343737119e-17
-1.459978855337e-20 -1.5303094295951998e-19 1.6909660701029299e-18
-1.148795035013e-19 -1.2711776973382199e-18 1.437722643090858e-17
-1.3971679696689998e-20 -1.6225055920359e-19 1.8796294446108598e-18
-5.203763857356e-20 -6.2228230128411e-19 7.387652824599669e-18
-3.65399896554e-21 -4.455614407126e-20 5.4220252261823e-19
6.533554622239999e-20 8.1555738007965e-19 -1.017290579396665e-17
3.441710246776e-20 4.3311831499888996e-19 -5.53703195601757e-18
-5.767385664989e-20 -7.389688477088999e-19 9.67895933518763e-18
2.5638956370769997e-20 3.250069817609e-19 -4.3594795637930696e-18
5.2187244110279994e-20 5.3577808610504e-19 -7.35655173647684e-18
7.4656775981e-21 6.22006879187e-20 -8.7349336654088e-19
1.7130482115785999e-19 1.0706788715339699e-18 -1.569097372726227e-17
1.5382273679751998e-19 7.798506105491599e-19 -1.168127030615514e-17
-6.86960834708e-20 -2.9812088307035997e-19 4.5564388280701794e-18
-6.363463781972e-20 -2.3078778629187997e-19 3.5931483476509195e-18
-1.7603043862365998e-19 -4.5135972508246e-19 7.145823730832709e-18
-1.18452520978161e-18 -1.6216764086382598e-18 2.605060742995791e-17
-1.752422720558226e-17 2.06999874789032e-17 -5.05797458677573e-18
-1.51192115404e-18 1.5089806272562e-18 -7.97533850056361e-18
-6.6244461649099995e-21 -1.132884195438e-20 3.7851866969209997e-19
5.68629862454e-21 -1.034419684187e-20 1.824190184863e-19
-9.43538908946e-21 3.371238455978e-20 -6.9404765903028e-19
1.0949682184189999e-20 9.94217612102e-21 -3.1124607678642e-19
-1.071468900434e-20 -1.943026780693e-20 4.9519068197557e-19
6.423800214091e-20 1.4969572107406998e-19 -3.51774914538045e-18
-9.01563791104e-21 -2.440024162973e-20 5.3940880431008e-19
-1.5323819179823999e-19 -4.5774367054866e-19 9.58947322815654e-18
2.073757501399e-20 6.678231993536e-20 -1.3286600126869298e-18
-1.7961947908706998e-19 -6.0992968039535e-19 1.153819449849398e-17
5.962274854644999e-20 2.1413844170442998e-19 -3.85124131970242e-18
4.4602311597878e-19 1.62439399405653e-18 -2.784809105910456e-17
7.899217625180999e-20 2.9901119545094e-19 -4.8821564303172e-18
-1.0799857888325999e-19 -4.2521205272798e-19 6.6157671731052895e-18
1.6032897866711999e-19 6.3854866642003995e-19 -9.48433887503293e-18
1.5433409213365998e-19 6.3766560945406e-19 -8.996949648099569e-18
-9.880355537447e-20 -4.1771425263225996e-19 5.6373216890599795e-18
-2.4618076681181996e-19 -1.1180896437682e-18 1.446428529749563e-17
-2.2926082100167e-19 -1.08290727630093e-18 1.3496188577531859e-17
-8.800943771277999e-20 -4.419605280175e-19 5.3236315030196e-18
2.2242914620904997e-19 1.1681724872898999e-18 -1.365762456520552e-17
-4.2312945860431998e-19 -2.3184545385552e-18 2.609182425380066e-17
-2.0017509439778998e-19 -1.1657925499298199e-18 1.2818428773967099e-17
1.3819161502672e-19 8.5211502553646e-19 -9.214918149762649e-18
-2.33818205263e-21 -1.521226462538e-20 1.6272648928249e-19
-1.3182956081265e-19 -9.011312526442299e-19 9.582584316632519e-18
-1.6431847396762998e-19 -1.18843312147522e-18 1.2615079522063119e-17
-3.565609148758e-20 -2.7370146218077997e-19 2.91040636582133e-18
1.0932700065998e-19 8.9096607867066e-19 -9.519029604247659e-18
7.554147093211e-20 6.943605848946299e-19 -7.346836600915119e-18
-1.2587504175682e-19 -1.23982519875496e-18 1.3397524343737119e-17
-1.459978855337e-20 -1.5303094295951998e-19 1.6909660701029299e-18
-1.148795035013e-19 -1.2711776973382199e-18 1.437722643090858e-17
-1.3971679696689998e-20 -1.6225055920359e-19 1.8796294446108598e-18
-5.203763857356e-20 -6.2228230128411e-19 7.387652824599669e-18
-3.65399896554e-21 -4.455614407126e-20 5.4220252261823e-19
6.533554622239999e-20 8.1555738007965e-19 -1.017290579396665e-17
3.441710246776e-20 4.3311831499888996e-19 -5.53703195601757e-18
-5.767385664989e-20 -7.389688477088999e-19 9.67895933518763e-18
2.5638956370769997e-20 3.250069817609e-19 -4.3594795637930696e-18
5.2187244110279994e-20 5.3577808610504e-19 -7.35655173647684e-18
7.4656775981e-21 6.22006879187e-20 -8.7349336654088e-19
1.7130482115785999e-19 1.0706788715339699e-18 -1.569097372726227e-17
1.5382273679751998e-19 7.798506105491599e-19 -1.168127030615514e-17
-6.86960834708e-20 -2.9812088307035997e-19 4.5564388280701794e-18
-6.363463781972e-20 -2.3078778629187997e-19 3.5931483476509195e-18
-1.7603043862365998e-19 -4.5135972508246e-19 7.145823730832709e-18
-1.18452520978161e-18 -1.6216764086382598e-18 2.605060742995791e-17

SCALARS Gamma float
LOOKUP_TABLE default
-0.00013446583550873493
-0.004109821262195875
0.028234811306736322
-0.00345946305675422
-0.011864015991045498
0.014692555561684669
0.057099271375079794
0.10601687788910277
0.14863387831934513
0.17921685881199148
0.19117381725578278
0.19981020068041402
0.20126261156959785
0.17444364064786258
0.16194676793895693
0.15489423449821288
0.14420132811624142
0.1453408016773572
0.14030192802575442
0.14562181122513215
0.1468404231829595
0.1467643580774703
0.146005849113303
0.1472568874131225
0.15243189676802385
0.15659200966370532
0.15918411266748517
0.15852185331954782
0.1596613248191597
0.16146398465219572
0.16269826627509865
0.17723929465806382
0.17781781191912915
0.17779762236221483
0.17729266494095905
0.17589273714769396
0.17385654684971877
0.17124344016139836
0.16818547430372355
0.1627200065581033
0.15857529972793416
0.14962628382222365
0.13586984614266784
0.11763401543946002
0.10430298109898739
0.08916527853045406
0.0786918436331773
0.0679952903168356
0.049010605468567836
0.027289817714412922
-0.00013446583550873493
-0.004109821262195875
0.028234811306736322
-0.00345946305675422
-0.011864015991045498
0.014692555561684669
0.057099271375079794
0.10601687788910277
0.14863387831934513
0.17921685881199148
0.19117381725578278
0.19981020068041402
0.20126261156959785
0.17444364064786258
0.16194676793895693
0.15489423449821288
0.14420132811624142
0.1453408016773572
0.14030192802575442
0.14562181122513215
0.1468404231829595
0.1467643580774703
0.146005849113303
0.1472568874131225
0.15243189676802385
0.15659200966370532
0.15918411266748517
0.15852185331954782
0.1596613248191597
0.16146398465219572
0.16269826627509865
0.17723929465806382
0.17781781191912915
0.17779762236221483
0.17729266494095905
0.17589273714769396
0.17385654684971877
0.17124344016139836
0.16818547430372355
0.1627200065581033
0.15857529972793416
0.14962628382222365
0.13586984614266784
0.11763401543946002
0.10430298109898739
0.08916527853045406
0.0786918436331773
0.0679952903168356
0.049010605468567836
0.027289817714412922

VECTORS Ftot float
0.16995407636697518 0.14387998310651917 -4.4005334234840757e-16
0.24202124384096874 0.24249286682730872 -7.416583894370051e-16
-0.28556555709455567 0.16698208582498061 -5.107105477291508e-16
0.07266067802498988 0.03994223232866678 -1.2216232207974204e-16
0.23209150235816176 0.06495754179665127 -1.986710226202244e-16
-0.2034825562239668 0.22410278127829653 -6.854127711293859e-16
-1.0364195439572532 0.5715265070900483 -1.7479995775332496e-15
-2.2057398437141127 0.946535544143382 -2.894955370848881e-15
-3.44096147683276 1.2713998169245442 -3.888544652417665e-15
-4.542176411689692 1.5205778800209468 -4.6506495480256634e-15
-5.249132704530475 1.629986549194045 -4.985273235852131e-15
-5.893545873413397 1.7356027650138839 -5.308297799618603e-15
-6.3405177730962805 1.7653957590734393 -5.399418929406111e-15
-5.82654499682586 1.5998420114721705 -4.893076918535092e-15
-5.71734861147209 1.5103976576171274 -4.619513591529657e-15
-5.757661647127151 1.4623745295812336 -4.47263605133301e-15
-5.617819618299135 1.4105413245754193 -4.314105485684053e-15
-5.926002362375419 1.434269280041843 -4.386676846096041e-15
-5.962852083237675 1.4104162888466238 -4.3137230670238515e-15
-6.444286791462402 1.418901849882741 -4.339675943963518e-15
-6.7414479046932465 1.427222731986155 -4.365125154491877e-15
-6.977991574573392 1.3895564782616883 -4.249923856247884e-15
-7.170278791496178 1.3652769663950075 -4.175665574332388e-15
-7.453766755899334 1.360349422228442 -4.160594803310256e-15
-7.940937529071057 1.3635169649903751 -4.170282653901594e-15
-8.38021319016699 1.3590597047484798 -4.1566502345419765e-15
-8.736531960386197 1.3428376862395466 -4.107035595240769e-15
-8.908384978389552 1.3032379864808739 -3.985920900489266e-15
-9.17495574095781 1.2685734677297549 -3.8799003338477224e-15
-9.475491145946615 1.2344069209483122 -3.775402802064263e-15
-9.738105299216114 1.1949252277514215 -3.654649027440843e-15
-10.814117912339855 1.1764987698075617 -3.598292165070107e-15
-11.038017690183235 1.1206506683841533 -3.427482138792934e-15
-11.216218883679298 1.0700739399700039 -3.272794475483877e-15
-11.354461122002595 1.0261310113855326 -3.138396123616835e-15
-11.425168986372784 0.9838413028694796 -3.009054104125134e-15
-11.44292083037101 0.9569010353788265 -2.9266579674488787e-15
-11.41094379432745 0.9357985905063063 -2.862116665751612e-15
-11.337517457959018 0.9082658241035436 -2.7779083859197756e-15
-11.08774999816284 0.8810715562203998 -2.6947353953736484e-15
-10.91409732173138 0.8518059811966989 -2.60522736356221e-15
-10.393584374774253 0.8199228671241684 -2.5077136538079795e-15
-9.516410321965077 0.9269420332890741 -2.835029106238503e-15
-8.301865866713735 0.9964367935054517 -3.0475770983124086e-15
-7.412102178248382 1.1859100537114244 -3.627076342328583e-15
-6.3757881414972735 1.2576013506940968 -3.846342387356968e-15
-5.658206484331629 1.3038221976919135 -3.987707695917683e-15
-4.91289301707369 1.3546218056491701 -4.143077030754411e-15
-3.5561247762378754 1.3868898117731283 -4.241767923255102e-15
-1.9878606912626215 1.451998123541548 -4.440900072076275e-15
0.16995407636697518 0.14387998310651917 -4.4005334234840757e-16
0.24202124384096874 0.24249286682730872 -7.416583894370051e-16
-0.28556555709455567 0.16698208582498061 -5.107105477291508e-16
0.07266067802498988 0.03994223232866678 -1.2216232207974204e-16
0.23209150235816176 0.06495754179665127 -1.986710226202244e-16
-0.2034825562239668 0.22410278127829653 -6.854127711293859e-16
-1.0364195439572532 0.5715265070900483 -1.7479995775332496e-15
-2.2057398437141127 0.946535544143382 -2.894955370848881e-15
-3.44096147683276 1.2713998169245442 -3.888544652417665e-15
-4.542176411689692 1.5205778800209468 -4.6506495480256634e-15
-5.249132704530475 1.629986549194045 -4.985273235852131e-15
-5.893545873413397 1.7356027650138839 -5.308297799618603e-15
-6.3405177730962805 1.7653957590734393 -5.399418929406111e-15
-5.82654499682586 1.5998420114721705 -4.893076918535092e-15
-5.71734861147209 1.5103976576171274 -4.619513591529657e-15
-5.757661647127151 1.4623745295812336 -4.47263605133301e-15
-5.617819618299135 1.4105413245754193 -4.314105485684053e-15
-5.926002362375419 1.434269280041843 -4.386676846096041e-15
-5.962852083237675 1.4104162888466238 -4.3137230670238515e-15
-6.444286791462402 1.418901849882741 -4.339675943963518e-15
-6.7414479046932465 1.427222731986155 -4.365125154491877e-15
-6.977991574573392 1.3895564782616883 -4.249923856247884e-15
-7.170278791496178 1.3652769663950075 -4.175665574332388e-15
-7.453766755899334 1.360349422228442 -4.160594803310256e-15
-7.940937529071057 1.3635169649903751 -4.170282653901594e-15
-8.38021319016699 1.3590597047484798 -4.1566502345419765e-15
-8.736531960386197 1.3428376862395466 -4.107035595240769e-15
-8.908384978389552 1.3032379864808739 -3.985920900489266e-15
-9.17495574095781 1.2685734677297549 -3.8799003338477224e-15
-9.475491145946615 1.2344069209483122 -3.775402802064263e-15
-9.738105299216114 1.1949252277514215 -3.654649027440843e-15
-10.814117912339855 1.1764987698075617 -3.598292165070107e-15
-11.038017690183235 1.1206506683841533 -3.427482138792934e-15
-11.216218883679298 1.0700739399700039 -3.272794475483877e-15
-11.354461122002595 1.0261310113855326 -3.138396123616835e-15
-11.425168986372784 0.9838413028694796 -3.009054104125134e-15
-11.44292083037101 0.9569010353788265 -2.9266579674488787e-15
-11.41094379432745 0.9357985905063063 -2.862116665751612e-15
-11.337517457959018 0.9082658241035436 -2.7779083859197756e-15
-11.08774999816284 0.8810715562203998 -2.6947353953736484e-15
-10.91409732173138 0.8518059811966989 -2.60522736356221e-15
-10.393584374774253 0.8199228671241684 -2.5077136538079795e-15
-9.516410321965077 0.9269420332890741 -2.835029106238503e-15
-8.301865866713735 0.9964367935054517 -3.0475770983124086e-15
-7.412102178248382 1.1859100537114244 -3.627076342328583e-15
-6.3757881414972735 1.2576013506940968 -3.846342387356968e-15
-5.658206484331629 1.3038221976919135 -3.987707695917683e-15
-4.91289301707369 1.3546218056491701 -4.143077030754411e-15
-3.5561247762378754 1.3868898117731283 -4.241767923255102e-15
-1.9878606912626215 1.451998123541548 -4.440900072076275e-15

VECTORS D float
0.1691561173596787 0.1445908573742714 0.0056739516764639265
0.21056876525577306 0.26688881628510397 0.010578445395052975
-0.0018274584570903303 -0.0030494599968137037 -0.0001232508572315682
0.029542257066232876 0.060791192505265004 0.002526326309774014
0.056295218844596095 0.13696178029503467 0.005887406809111497
0.04792916928813477 0.13373229046672525 0.005957984033378173
0.06949407024461222 0.21716513247645128 0.010024792899692398
0.08151296702692028 0.27997527658501914 0.013402698462341461
0.08671299564257737 0.32271166753619074 0.01604722719827174
0.08992938714250451 0.3588763355904024 0.01856765054399913
0.0877197304056531 0.37265542156844517 0.020099865897459383
0.08994923359944414 0.40482341123224297 0.022799966523981648
0.08659168959242203 0.4114923573589339 0.02422054578499218
0.0834229847937432 0.4175778589533347 0.025693665832897658
0.0774430197316678 0.40753231202165446 0.0262126210606247
0.07329614062448737 0.40483255496221476 0.027216127173223217
0.07347508210049135 0.42536798702948586 0.029880664267716368
0.07261492094139659 0.4384804128627108 0.032323270550041014
0.07184441236672766 0.45513730215518544 0.0349839573237703
0.06570350964573243 0.43673322033052336 0.03487775723113362
0.06432434355258902 0.44887139055971065 0.03710922857194398
0.058218373672401645 0.42690724077974707 0.03640370596106173
0.055148585973850146 0.42547581979641913 0.03729021816016133
0.053310006176587675 0.4334264091442342 0.0393777165393932
0.05061198229711968 0.43955072385108507 0.040766011710974936
0.048283623687250164 0.4492783636129704 0.0422694189887908
0.04604796685854007 0.4605340522233722 0.04371405314805301
0.043482132056481444 0.46896340551821636 0.04469877825000575
0.04066975248210788 0.4746775730614804 0.045247859160453825
0.03783721551195057 0.47970783374074843 0.04557640619883389
0.0349910157236826 0.4838698734643555 0.04569132827913898
0.030755130082785805 0.48647128187003946 0.04629336271566452
0.02770510328446468 0.4873170914183294 0.0453572895384432
0.025136519555249988 0.4940833061833412 0.04493113342696648
0.022955525413919327 0.5072794797958524 0.04503507568080112
0.020880301639656932 0.5225812740975535 0.045264686123146616
0.01930759498985638 0.5521464804769518 0.046644815660459596
0.017736932506175595 0.5857612921691097 0.04825517065457897
0.0158038521257677 0.6103577360757023 0.049033611394704725
0.013851907579774567 0.6350032810962384 0.049757396352082865
0.01174835231855054 0.6507523843072333 0.04975362491834416
0.00970917927797473 0.6641342099417271 0.049569492210947246
0.009360947376843941 0.8129305250028266 0.05927218328475508
0.008033479159951985 0.9191356843253049 0.06551949838806727
0.006532596164855062 1.1380161811567426 0.077724236050888
0.004826532647508241 1.2270257187166906 0.081980740216003
0.0030658428199404376 1.2848069459947797 0.08410919298382905
0.0014434920798003857 1.3437957761123884 0.08633751754109201
-3.7617987405884015e-5 1.3814750812754142 0.08725874223450113
-0.0013612918562820842 1.448260754732555 0.09009378461884801
0.1691561173596787 0.1445908573742714 0.0056739516764639265
0.21056876525577306 0.26688881628510397 0.010578445395052975
-0.0018274584570903303 -0.0030494599968137037 -0.0001232508572315682
0.029542257066232876 0.060791192505265004 0.002526326309774014
0.056295218844596095 0.13696178029503467 0.005887406809111497
0.04792916928813477 0.13373229046672525 0.005957984033378173
0.06949407024461222 0.21716513247645128 0.010024792899692398
0.08151296702692028 0.27997527658501914 0.013402698462341461
0.08671299564257737 0.32271166753619074 0.01604722719827174
0.08992938714250451 0.3588763355904024 0.01856765054399913
0.0877197304056531 0.37265542156844517 0.020099865897459383
0.08994923359944414 0.40482341123224297 0.022799966523981648
0.08659168959242203 0.4114923573589339 0.02422054578499218
0.0834229847937432 0.4175778589533347 0.025693665832897658
0.0774430197316678 0.40753231202165446 0.0262126210606247
0.07329614062448737 0.40483255496221476 0.027216127173223217
0.07347508210049135 0.42536798702948586 0.029880664267716368
0.07261492094139659 0.4384804128627108 0.032323270550041014