# vtk DataFile Version 4.0
[MyVLM domain - lattices] 
ASCII
DATASET UNSTRUCTURED_GRID
POINTS 152 float
0.0018916144324157278 -0.00893319428144715 -0.004761098882437396
0.0010688609733395774 -0.01064618810488689 -0.008659594812418877
0.00045780959861706216 -0.012345339402728524 -0.012483378723288191
-0.00013255382275044122 -0.013895685669038517 -0.016256248146225446
-0.0007201482309470062 -0.015353892179946439 -0.019968211464179705
-0.0011946371146526612 -0.01657264881155396 -0.02364524342652575
-0.0014108622120167862 -0.017252749421708218 -0.027340102148918823
-0.0013224843579428829 -0.01764363089025056 -0.03100880517945916
-0.0010167791708201568 -0.01810938023955645 -0.03458715415277616
-0.0006138083932142036 -0.018406475091392233 -0.03811808863455871
-0.00020084691410191335 -0.018647361788456204 -0.0415817813007071
0.0001698744379422134 -0.018973307440198466 -0.04495332294833859
0.0004739400232210948 -0.019311766014446022 -0.048245505400268625
0.0007082255455298663 -0.019582175218369028 -0.051472533962350846
0.0008836440760600275 -0.019796112798716004 -0.05463236716545765
0.001017516815515788 -0.020011919635414738 -0.05771471793837954
0.0011275777072549662 -0.02028303036076161 -0.06071016431373839
0.0012277625198140337 -0.020622797888682803 -0.06361635181253796
0.00132638558954348 -0.020997910812852908 -0.06643915413447875
0.0014271324949937316 -0.021359301699121702 -0.0691872231920756
0.0015306083418583354 -0.02167457976127704 -0.07186627035486404
0.0016355657532635378 -0.021943009778837393 -0.07447642526205175
0.0017398364473795213 -0.0221844245757902 -0.07701419085166612
0.0018410131526058282 -0.022421765175050103 -0.07947552200240221
0.001936923789896676 -0.02267189220807096 -0.08185744573002296
0.0020259353317291845 -0.02294422319740068 -0.0841583014712117
0.0021071205190511294 -0.023241248738550723 -0.08637765006678177
0.002180316672546981 -0.023559373087129562 -0.0885161255434851
0.0022461021518325993 -0.02388995914832215 -0.09057525085417255
0.0023056987632523672 -0.02422062600167076 -0.09255720908916679
0.0023607022647827588 -0.024537850218966727 -0.09446438479373269
0.0024126938092907785 -0.024830458704010537 -0.09629874808618828
0.0024629658139780817 -0.02509185068771409 -0.09806146286021722
0.0025123806343549317 -0.02532084033306379 -0.09975273821087972
0.0025613283706516186 -0.025521499597058434 -0.10137185614229263
0.0026097549007438213 -0.025702324369389313 -0.10291731859987824
0.0026572361369983943 -0.025874980422978644 -0.10438706859311955
0.002703078927872171 -0.0260520060213961 -0.10577889528785794
0.0027464329900004744 -0.026241283404141773 -0.10709140883260124
0.0027864017842759935 -0.026441456490916584 -0.1083248483408941
0.0028221433614242725 -0.026641479518507205 -0.10948116147881358
0.0028529549202113143 -0.026822963749335283 -0.11056359067693591
0.002878337166053322 -0.02696331596634015 -0.11157611972900987
0.0028980365508205295 -0.027034736410609828 -0.11252365048258887
0.0029120651374179955 -0.027002938937394885 -0.11341222851005667
0.002920699186668212 -0.026832995442543906 -0.11424801257856018
0.0029244586304951574 -0.026498641987602402 -0.1150356337290686
0.002924070395798875 -0.02599085598851595 -0.11577668288658641
0.0029204190990956736 -0.02532326548560868 -0.11646875705991032
0.0029144889643634465 -0.024533341578336983 -0.11710524908320932
0.002907300946956263 -0.02367936627192775 -0.11767588226647213
0.006212993241944028 0.005440389324427953 -0.007295549481622097
0.0072288922610571306 0.0077279922323155 -0.011899458554270688
0.007974780507892725 0.00854250978691496 -0.016166470104391862
0.008270023946844132 0.008438267251935947 -0.02019432663206596
0.008140225139500825 0.007672718425267459 -0.02402842418814668
0.007751519283975376 0.006624530376984359 -0.02773553199379404
0.007318662739924205 0.005755572570892847 -0.03139709009704243
0.0069707766105224795 0.004924796262075717 -0.034988227798567875
0.006702226685381192 0.0038410267538236207 -0.038457603143240926
0.006460614097576536 0.002800907567587197 -0.04185752238754569
0.006208498480286784 0.0017336791881039264 -0.045175508719799536
0.005928720355726676 0.0005311343193426226 -0.04839248227420265
0.00562110152420414 -0.0007082596221919237 -0.05152580551300549
0.005297776270156929 -0.0018835606917304779 -0.05459327722455606
0.004977662142563614 -0.002990312157578548 -0.05759568325089787
0.004680078492205027 -0.004074158937869987 -0.060524975161431696
0.0044193472589770496 -0.005178263120340847 -0.06337354231554597
0.0042022226504668725 -0.006307624852608489 -0.06614050305230822
0.004028605706719037 -0.007422407438838919 -0.06883288165601627
0.003894567528214928 -0.008468980344141976 -0.07146013463696106
0.003794542923454683 -0.009412277274114584 -0.07402844512895934
0.0037223892098821663 -0.010250538785450332 -0.07653812336933705
0.0036720478837599236 -0.01100398100922507 -0.07898560470873997
0.0036379885391020494 -0.011697106989379456 -0.08136656859941188
0.003615480687410345 -0.012349302597546652 -0.08367759678913932
0.003600729157216099 -0.012973271112159445 -0.0859164493471911
0.0035909263662617956 -0.013575363354156923 -0.08808200645248605
0.003584242976167935 -0.014156248456014901 -0.09017415011891498
0.00357976601221264 -0.014711803943410642 -0.09219360724992831
0.003577378730160166 -0.015234272612907341 -0.09414174564978675
0.0035774796054096774 -0.01571473812689976 -0.09602013750937924
0.003580588564800478 -0.01614650746080743 -0.09782996298952183
0.0035870678637920984 -0.016527237799345323 -0.09957163519176013
0.0035969747054953923 -0.016859699666919806 -0.10124466559789054
0.0036100119296844893 -0.017151556090725738 -0.10284770300946473
0.0036255480079795204 -0.017414480655869473 -0.10437868905846684
0.0036426825552804717 -0.01766287054337208 -0.10583508513343673
0.0036603380175139954 -0.01791153070018525 -0.10721428072277887
0.003677362157174432 -0.01817014044818568 -0.1085145691008914
0.0036926294639041822 -0.018438678774943547 -0.10973595397283264
0.0037051326977571345 -0.018706991770700166 -0.11088022574685273
0.003714058455611533 -0.0189571679830224 -0.1119505426952793
0.003718842962038476 -0.01916671394895882 -0.11295087102252029
0.003719206248598144 -0.01930759604852085 -0.11388615381214655
0.003715164522496519 -0.019345009912535346 -0.1147625280134899
0.0037070218583473346 -0.019243277890224127 -0.1155862845589908
0.003695343396461056 -0.018975210478002793 -0.11636221769172325
0.003680913018392471 -0.01853073958977894 -0.11709210268690944
0.0036646790161518838 -0.017922383264154865 -0.11777373227659826
0.003647691596346039 -0.017186491550641718 -0.11840069696631077
0.0036310361855396924 -0.01638026457815601 -0.11896291083001899
0.005410766489344848 0.002490720285487039 -0.008875714725316829
0.005892211109850776 0.003227497318759497 -0.01316759493896184
0.006132458642509649 0.0030876632555982097 -0.01722775213486089
0.006047255650667177 0.0023854223978281588 -0.021111589008880383
0.005720055990603616 0.00137065067690688 -0.024863165429565952
0.005325630843128663 0.0004143638262961805 -0.028547901480994252
0.005016871435172548 -0.00035690922663163683 -0.032188107626901115
0.004834968294868498 -0.001181942760263625 -0.03574168151970771
0.004732241848104854 -0.002073756545839527 -0.03920632742246184
0.00464908530328423 -0.002931259576596884 -0.04259987040716269
0.004547585503985086 -0.0038532785882893785 -0.045904884653881525
0.004411660012619469 -0.0048520561703990495 -0.049119211463778956
0.004242349868979272 -0.005833675271822782 -0.052259410946913006
0.00405227310746894 -0.0067499883206265125 -0.05533397281927129
0.003859297849485217 -0.007625180715059544 -0.058338632542603235
0.0036804214720396232 -0.008506527021351105 -0.06126505433538137
0.003527506244425096 -0.009420436521036555 -0.06410858152872986
0.003405829147614405 -0.010351350696984743 -0.06687195750899877
0.003315379723667389 -0.011253921982614665 -0.0695631782756858
0.003253134023982613 -0.012084706789396054 -0.07218990410558762
0.003214621311891553 -0.01282575471485115 -0.07475530013897563
0.0031948391851961662 -0.013486374217331728 -0.07725772504349362
0.0031888698585714084 -0.014088681718331737 -0.0796932790973155
0.0031922930777549615 -0.014654110767987425 -0.08205818298725985
0.003201436081938149 -0.015197979566823745 -0.08434973570127824
0.0032135028026517493 -0.015728921916862565 -0.08656641486712813
0.003226618152360912 -0.01624943215702447 -0.08870778066555876
0.0032398057236901635 -0.01675668617921604 -0.09077433106302345
0.003252904392775423 -0.017243601852368357 -0.09276731483031057
0.003266372004343082 -0.017700688555007348 -0.09468840542004968
0.0032809500730880004 -0.018119005710762356 -0.09653917929707803
0.0032973286136308236 -0.01849294314652286 -0.09832062568628143
0.0033159342695244357 -0.018821687927446658 -0.10003288793000613
0.0033368336138182735 -0.019109513400382357 -0.10167521252190478
0.0033597203855484335 -0.019365241775779172 -0.10324604386824571
0.0033839603409402744 -0.01960116979876158 -0.1047432137210886
0.003408672097906746 -0.01983127377188084 -0.10616425768120306
0.0034328265552422406 -0.020067287858831332 -0.10750710669893376
0.0034553512046890385 -0.020313649695555755 -0.10877097829933345
0.003475228953835527 -0.020564993455794368 -0.10995681862234549
0.0034915839677176984 -0.020807115316126275 -0.1110671321852682
0.0035037495424018335 -0.021019740688952387 -0.11210549394491807
0.0035113151685979642 -0.021177622796173624 -0.1130763555894499
0.003514151750190315 -0.021249436653896663 -0.11398524055869438
0.003512415433327221 -0.02120009972352715 -0.11483833485075737
0.0035065316976985676 -0.020998387816853384 -0.11564114413247137
0.0034971622838568268 -0.020625918522432944 -0.11639690971894415
0.003485158199815951 -0.020084186254490755 -0.11710536810462749
0.0034715024876191118 -0.01939790393854193 -0.11776216173398082
0.003457246657122113 -0.01861412202958224 -0.11835899434233384

CELLS 100 350
4 0 51 52 1
4 1 52 53 2
4 2 53 54 3
4 3 54 55 4
4 4 55 56 5
4 5 56 57 6
4 6 57 58 7
4 7 58 59 8
4 8 59 60 9
4 9 60 61 10
4 10 61 62 11
4 11 62 63 12
4 12 63 64 13
4 13 64 65 14
4 14 65 66 15
4 15 66 67 16
4 16 67 68 17
4 17 68 69 18
4 18 69 70 19
4 19 70 71 20
4 20 71 72 21
4 21 72 73 22
4 22 73 74 23
4 23 74 75 24
4 24 75 76 25
4 25 76 77 26
4 26 77 78 27
4 27 78 79 28
4 28 79 80 29
4 29 80 81 30
4 30 81 82 31
4 31 82 83 32
4 32 83 84 33
4 33 84 85 34
4 34 85 86 35
4 35 86 87 36
4 36 87 88 37
4 37 88 89 38
4 38 89 90 39
4 39 90 91 40
4 40 91 92 41
4 41 92 93 42
4 42 93 94 43
4 43 94 95 44
4 44 95 96 45
4 45 96 97 46
4 46 97 98 47
4 47 98 99 48
4 48 99 100 49
4 49 100 101 50
1 102
1 103
1 104
1 105
1 106
1 107
1 108
1 109
1 110
1 111
1 112
1 113
1 114
1 115
1 116
1 117
1 118
1 119
1 120
1 121
1 122
1 123
1 124
1 125
1 126
1 127
1 128
1 129
1 130
1 131
1 132
1 133
1 134
1 135
1 136
1 137
1 138
1 139
1 140
1 141
1 142
1 143
1 144
1 145
1 146
1 147
1 148
1 149
1 150
1 151

CELL_TYPES 100
9
9
9
9
9
9
9
9
9
9
9
9
9
9
9
9
9
9
9
9
9
9
9
9
9
9
9
9
9
9
9
9
9
9
9
9
9
9
9
9
9
9
9
9
9
9
9
9
9
9
1
1
1
1
1
1
1
1
1
1
1
1
1
1
1
1
1
1
1
1
1
1
1
1
1
1
1
1
1
1
1
1
1
1
1
1
1
1
1
1
1
1
1
1
1
1
1
1
1
1

CELL_DATA 100

VECTORS S float
-8.788526382511159e-18 1.0953791030132609e-17 -2.87561019994892e-18
3.1636064475018597e-18 -2.2969887565815897e-18 1.1494810187917699e-17
8.928447990336e-20 -1.6882833508090998e-19 -3.50304786094226e-18
1.9254278197087e-19 -8.957088341061999e-20 3.0207088419879e-19
4.342477752e-21 1.678959334314e-20 6.1094001509892e-19
-9.581476516472e-20 6.274087213556999e-20 9.0220503458669e-19
1.0744671325041e-19 -1.4378215474975e-19 -3.6913674364515895e-18
2.8762332865022e-19 -4.2823131044139e-19 -1.236961059183321e-17
3.4313832652203e-19 -5.6471519322656e-19 -1.691960461460446e-17
-1.1709164531424e-19 2.0362047104645e-19 6.30453063217115e-18
1.6427572787204e-19 -2.9406764734559e-19 -9.42384559410964e-18
-2.6673619101473e-19 4.793274244733199e-19 1.592502971746584e-17
-1.3222839634166e-19 2.377101325339e-19 8.21909193099994e-18
1.2995054934263e-19 -2.2454785585354e-19 -8.06780162662828e-18
-9.745147868920999e-20 1.6465986802843e-19 6.184285672182509e-18
1.5691759957485998e-19 -2.5776755051922997e-19 -1.015275864351303e-17
1.27985146425e-19 -1.9817633234854e-19 -8.19072689147743e-18
3.4663872013727e-19 -4.6942361875881e-19 -2.179282855010276e-17
-1.9812015049816e-19 2.3600634574851e-19 1.204094965575897e-17
-1.8918293226353e-19 1.9997586818834e-19 1.167184478001806e-17
4.1393981985671e-19 -3.5800840661618e-19 -2.473515058039693e-17
3.0270168468389997e-20 -2.0468522906319998e-20 -1.7722680051800297e-18
2.8353134363529997e-19 -1.3662076867013e-19 -1.610293085613722e-17
-1.9339215371787e-19 5.1079663026e-20 1.088275204998106e-17
1.0801607469828e-19 -8.16930741142e-21 -6.06337293416927e-18
5.749063604422e-20 6.16020039282e-21 -3.2335408639868597e-18
1.7834715372366998e-19 4.9710000555629994e-20 -1.002962929145617e-17
-2.0212964382068e-19 -8.730209261483e-20 1.131916495859549e-17
6.0464553912549e-19 3.4976332574745e-19 -3.447490691480132e-17
-1.7751408798702998e-19 -1.2708031186598e-19 1.0443730130451389e-17
-1.5970807607623998e-19 -1.3791191645553e-19 1.001974611465909e-17
-2.2898831800849e-19 -2.2062457606809e-19 1.664341524157551e-17
-1.0709277806638999e-19 -1.1383056035117e-19 8.538372713324e-18
6.281519566917e-20 7.202665918647e-20 -5.59717709427971e-18
4.8377955992879995e-20 5.732147161912e-20 -4.81344409090806e-18
2.0227335957197e-19 2.3598737096687e-19 -2.241809538570652e-17
1.4643023721284e-19 1.6041559254719e-19 -1.7679476016206588e-17
-5.923850463222e-20 -5.451352235339e-20 7.75413120793834e-18
3.20081571088e-21 2.1984309247199997e-21 -4.5619414170403e-19
8.554762193226e-20 3.266961984379e-20 -1.305630681461068e-17
-7.195741678871e-20 -1.68505633475e-21 1.1925568899940199e-17
1.9135277667099997e-21 -7.3789633936e-22 -3.3272537410153996e-19
4.866796956973e-20 -3.753655465038e-20 -7.99377388965132e-18
7.446292037431e-20 -6.334974646622e-20 -9.134433831518399e-18
-9.752558234150999e-20 7.000078211991e-20 7.76077386064414e-18
2.2801983300399997e-21 -1.4829395089199998e-21 -1.3552151867104e-19
3.5878785058898997e-19 -2.1161217497398e-19 -1.6666972363028618e-17
4.937392834029999e-19 -2.4430322828597e-19 -1.714159562234102e-17
1.4151217874584799e-18 -5.19937336497e-19 -3.345035887442452e-17
1.2032865082604299e-18 -2.4475209283348e-19 -1.504654536894444e-17
-8.788526382511159e-18 1.0953791030132609e-17 -2.87561019994892e-18
3.1636064475018597e-18 -2.2969887565815897e-18 1.1494810187917699e-17
8.928447990336e-20 -1.6882833508090998e-19 -3.50304786094226e-18
1.9254278197087e-19 -8.957088341061999e-20 3.0207088419879e-19
4.342477752e-21 1.678959334314e-20 6.1094001509892e-19
-9.581476516472e-20 6.274087213556999e-20 9.0220503458669e-19
1.0744671325041e-19 -1.4378215474975e-19 -3.6913674364515895e-18
2.8762332865022e-19 -4.2823131044139e-19 -1.236961059183321e-17
3.4313832652203e-19 -5.6471519322656e-19 -1.691960461460446e-17
-1.1709164531424e-19 2.0362047104645e-19 6.30453063217115e-18
1.6427572787204e-19 -2.9406764734559e-19 -9.42384559410964e-18
-2.6673619101473e-19 4.793274244733199e-19 1.592502971746584e-17
-1.3222839634166e-19 2.377101325339e-19 8.21909193099994e-18
1.2995054934263e-19 -2.2454785585354e-19 -8.06780162662828e-18
-9.745147868920999e-20 1.6465986802843e-19 6.184285672182509e-18
1.5691759957485998e-19 -2.5776755051922997e-19 -1.015275864351303e-17
1.27985146425e-19 -1.9817633234854e-19 -8.19072689147743e-18
3.4663872013727e-19 -4.6942361875881e-19 -2.179282855010276e-17
-1.9812015049816e-19 2.3600634574851e-19 1.204094965575897e-17
-1.8918293226353e-19 1.9997586818834e-19 1.167184478001806e-17
4.1393981985671e-19 -3.5800840661618e-19 -2.473515058039693e-17
3.0270168468389997e-20 -2.0468522906319998e-20 -1.7722680051800297e-18
2.8353134363529997e-19 -1.3662076867013e-19 -1.610293085613722e-17
-1.9339215371787e-19 5.1079663026e-20 1.088275204998106e-17
1.0801607469828e-19 -8.16930741142e-21 -6.06337293416927e-18
5.749063604422e-20 6.16020039282e-21 -3.2335408639868597e-18
1.7834715372366998e-19 4.9710000555629994e-20 -1.002962929145617e-17
-2.0212964382068e-19 -8.730209261483e-20 1.131916495859549e-17
6.0464553912549e-19 3.4976332574745e-19 -3.447490691480132e-17
-1.7751408798702998e-19 -1.2708031186598e-19 1.0443730130451389e-17
-1.5970807607623998e-19 -1.3791191645553e-19 1.001974611465909e-17
-2.2898831800849e-19 -2.2062457606809e-19 1.664341524157551e-17
-1.0709277806638999e-19 -1.1383056035117e-19 8.538372713324e-18
6.281519566917e-20 7.202665918647e-20 -5.59717709427971e-18
4.8377955992879995e-20 5.732147161912e-20 -4.81344409090806e-18
2.0227335957197e-19 2.3598737096687e-19 -2.241809538570652e-17
1.4643023721284e-19 1.6041559254719e-19 -1.7679476016206588e-17
-5.923850463222e-20 -5.451352235339e-20 7.75413120793834e-18
3.20081571088e-21 2.1984309247199997e-21 -4.5619414170403e-19
8.554762193226e-20 3.266961984379e-20 -1.305630681461068e-17
-7.195741678871e-20 -1.68505633475e-21 1.1925568899940199e-17
1.9135277667099997e-21 -7.3789633936e-22 -3.3272537410153996e-19
4.866796956973e-20 -3.753655465038e-20 -7.99377388965132e-18
7.446292037431e-20 -6.334974646622e-20 -9.134433831518399e-18
-9.752558234150999e-20 7.000078211991e-20 7.76077386064414e-18
2.2801983300399997e-21 -1.4829395089199998e-21 -1.3552151867104e-19
3.5878785058898997e-19 -2.1161217497398e-19 -1.6666972363028618e-17
4.937392834029999e-19 -2.4430322828597e-19 -1.714159562234102e-17
1.4151217874584799e-18 -5.19937336497e-19 -3.345035887442452e-17
1.2032865082604299e-18 -2.4475209283348e-19 -1.504654536894444e-17

SCALARS Gamma float
LOOKUP_TABLE default
-0.00014241655909074766
-0.0038989971377861457
0.030360902350867955
-0.0001537547635811782
-0.017316038949749944
0.004428566191281278
0.044665350000776226
0.0984527630135856
0.1424646101313461
0.17578002130410855
0.19077235167224288
0.2024041238164757
0.2064358965155061
0.18024603750071172
0.16797852162267898
0.16023331858588258
0.1475995934107803
0.1449920254987237
0.1336383460744117
0.13323519834928707
0.12690876793865616
0.11906189418001564
0.11361496506636583
0.11498362292384479
0.11696692194474309
0.11863135250544721
0.11883970812545666
0.11544063846547241
0.11559777147013506
0.11731485465980102
0.12396623074314835
0.14207937774223386
0.1499660649767341
0.15693090089896228
0.16302109753324381
0.16754163498053423
0.17057869438702247
0.17281418513344737
0.1743038341716687
0.17308149122953068
0.17391850026778521
0.17170842017548588
0.17826390865082511
0.13998342150340537
0.10735535893802017
0.08422702981922567
0.06727576477141645
0.05150049366135043
0.035580222855880014
0.019396022853219976
-0.00014241655909074766
-0.0038989971377861457
0.030360902350867955
-0.0001537547635811782
-0.017316038949749944
0.004428566191281278
0.044665350000776226
0.0984527630135856
0.1424646101313461
0.17578002130410855
0.19077235167224288
0.2024041238164757
0.2064358965155061
0.18024603750071172
0.16797852162267898
0.16023331858588258
0.1475995934107803
0.1449920254987237
0.1336383460744117
0.13323519834928707
0.12690876793865616
0.11906189418001564
0.11361496506636583
0.11498362292384479
0.11696692194474309
0.11863135250544721
0.11883970812545666
0.11544063846547241
0.11559777147013506
0.11731485465980102
0.12396623074314835
0.14207937774223386
0.1499660649767341
0.15693090089896228
0.16302109753324381
0.16754163498053423
0.17057869438702247
0.17281418513344737
0.1743038341716687
0.17308149122953068
0.17391850026778521
0.17170842017548588
0.17826390865082511
0.13998342150340537
0.10735535893802017
0.08422702981922567
0.06727576477141645
0.05150049366135043
0.035580222855880014
0.019396022853219976

VECTORS Ftot float
0.20723750797333912 0.16253917573058202 -0.014220335255274524
0.2731170896971577 0.2616183522758002 -0.022888639994465106
-0.3041045216598637 0.19725450208651674 -0.017257532762021667
0.01704884336000919 0.028298875965084812 -0.0024758308374712673
0.32144158298679926 0.03807487859034687 -0.0033311202417814056
-0.026888322445720668 0.15911089849138865 -0.01392039986142114
-0.8018019517812793 0.480832016573745 -0.04206735051051367
-2.0465642934456043 0.9001027336475481 -0.07874878520285805
-3.298286822897338 1.2361512039641234 -0.10814921675078762
-4.456781524991783 1.4997705142021622 -0.13121291788314055
-5.240572340606777 1.6230756867871285 -0.1420007226384331
-5.972427453835053 1.743086249768084 -0.15250028640263105
-6.504743389358455 1.7868099921050133 -0.15632561818404103
-6.0201714707414595 1.6254631997004059 -0.14220960295236665
-5.928792640667775 1.5350086439094313 -0.1342958547563828
-5.952540462559733 1.4814947792264126 -0.12961399825515815
-5.744262902278069 1.4181188145727253 -0.12406931980794061
-5.901124131925848 1.4232921779752754 -0.12452193045796366
-5.663620617045526 1.372672036682701 -0.12009324194878271
-5.876736385091908 1.3538817487771584 -0.11844930477265939
-5.802714065110669 1.3299697632365843 -0.11635727711546325
-5.633724955090284 1.267110086195703 -0.1108577679814851
-5.550582065900977 1.237038294453312 -0.10822682711211329
-5.795777271053934 1.2439632245110035 -0.10883267998787126
-6.069355153388201 1.2551771474346043 -0.10981377111733984
-6.326285742598159 1.2582309668042961 -0.11008094569264378
-6.501502084809754 1.2505805862416854 -0.10941162412175622
-6.468120020035939 1.2132497568527085 -0.10614559975020021
-6.6263300439011115 1.1903351059455505 -0.10414082756716976
-6.871281107109616 1.1719474510574615 -0.10253211621563486
-7.412025033884894 1.1668110292512637 -0.1020827375365052
-8.665171207420224 1.183385148588345 -0.10353278508642567
-9.310524394694685 1.1582736941810796 -0.10133581750114176
-9.906687782025477 1.107837958900011 -0.09692326242745358
-10.451470139944696 1.056804019525812 -0.09245837127714168
-10.89669956215924 1.003092614738528 -0.0877592322562021
-11.243837853703354 0.9644256277367083 -0.08437630924083847
-11.533434647565148 0.9322037706235146 -0.08155726202568174
-11.768626543998666 0.8945377360081095 -0.07826191099685863
-11.81286836152661 0.8600911754026398 -0.07524822744642122
-11.989696751318709 0.825566453392595 -0.07222770565915822
-11.947292551613378 0.8057816019292057 -0.07049675544656729
-12.50690154148207 0.9197034083162752 -0.08046362203383149
-9.898423983927104 1.001706821060796 -0.08763799101941465
-7.647906558671755 1.2247821369794007 -0.1071545522747575
-6.042328996827174 1.3281438201445717 -0.11619752779466867
-4.857982263957196 1.398237121299896 -0.12232989703486837
-3.7430309626125333 1.4721149504553717 -0.12879336957187773
-2.6049017366538463 1.5317330423822835 -0.13400927675652916
-1.4377189777662902 1.6143216202907154 -0.1412348410602448
0.20723750797333912 0.16253917573058202 -0.014220335255274524
0.2731170896971577 0.2616183522758002 -0.022888639994465106
-0.3041045216598637 0.19725450208651674 -0.017257532762021667
0.01704884336000919 0.028298875965084812 -0.0024758308374712673
0.32144158298679926 0.03807487859034687 -0.0033311202417814056
-0.026888322445720668 0.15911089849138865 -0.01392039986142114
-0.8018019517812793 0.480832016573745 -0.04206735051051367
-2.0465642934456043 0.9001027336475481 -0.07874878520285805
-3.298286822897338 1.2361512039641234 -0.10814921675078762
-4.456781524991783 1.4997705142021622 -0.13121291788314055
-5.240572340606777 1.6230756867871285 -0.1420007226384331
-5.972427453835053 1.743086249768084 -0.15250028640263105
-6.504743389358455 1.7868099921050133 -0.15632561818404103
-6.0201714707414595 1.6254631997004059 -0.14220960295236665
-5.928792640667775 1.5350086439094313 -0.1342958547563828
-5.952540462559733 1.4814947792264126 -0.12961399825515815
-5.744262902278069 1.4181188145727253 -0.12406931980794061
-5.901124131925848 1.4232921779752754 -0.12452193045796366
-5.663620617045526 1.372672036682701 -0.12009324194878271
-5.876736385091908 1.3538817487771584 -0.11844930477265939
-5.802714065110669 1.3299697632365843 -0.11635727711546325
-5.633724955090284 1.267110086195703 -0.1108577679814851
-5.550582065900977 1.237038294453312 -0.10822682711211329
-5.795777271053934 1.2439632245110035 -0.10883267998787126
-6.069355153388201 1.2551771474346043 -0.10981377111733984
-6.326285742598159 1.2582309668042961 -0.11008094569264378
-6.501502084809754 1.2505805862416854 -0.10941162412175622
-6.468120020035939 1.2132497568527085 -0.10614559975020021
-6.6263300439011115 1.1903351059455505 -0.10414082756716976
-6.871281107109616 1.1719474510574615 -0.10253211621563486
-7.412025033884894 1.1668110292512637 -0.1020827375365052
-8.665171207420224 1.183385148588345 -0.10353278508642567
-9.310524394694685 1.1582736941810796 -0.10133581750114176
-9.906687782025477 1.107837958900011 -0.09692326242745358
-10.451470139944696 1.056804019525812 -0.09245837127714168
-10.89669956215924 1.003092614738528 -0.0877592322562021
-11.243837853703354 0.9644256277367083 -0.08437630924083847
-11.533434647565148 0.9322037706235146 -0.08155726202568174
-11.768626543998666 0.8945377360081095 -0.07826191099685863
-11.81286836152661 0.8600911754026398 -0.07524822744642122
-11.989696751318709 0.825566453392595 -0.07222770565915822
-11.947292551613378 0.8057816019292057 -0.07049675544656729
-12.50690154148207 0.9197034083162752 -0.08046362203383149
-9.898423983927104 1.001706821060796 -0.08763799101941465
-7.647906558671755 1.2247821369794007 -0.1071545522747575
-6.042328996827174 1.3281438201445717 -0.11619752779466867
-4.857982263957196 1.398237121299896 -0.12232989703486837
-3.7430309626125333 1.4721149504553717 -0.12879336957187773
-2.6049017366538463 1.5317330423822835 -0.13400927675652916
-1.4377189777662902 1.6143216202907154 -0.1412348410602448

VECTORS D float
0.20628023835640968 0.16403704674633368 -0.005589000110950071
0.242980190905846 0.28752730669612203 -0.009417006988733772
0.0016550732723488778 0.002592354296575415 -8.275379469952935e-5
0.015092636435648633 0.029353380753133432 -0.0009162417694852269
0.06428180998148744 0.14898960711033205 -0.00455137521969249
0.048920353692166435 0.1311277765112899 -0.003923474956386615
0.06463976296351075 0.19567458393581452 -0.005740198882153377
0.0805560194658826 0.2719198353086547 -0.007540641336698602
0.08677688143266625 0.3194859109145961 -0.008903403919360179
0.09022021557461386 0.35835335742459895 -0.00989828578819148
0.08780049245504075 0.37325238811866696 -0.01011667274071173
0.08991837552836934 0.40679225960494 -0.010737951773735172
0.08668124186881584 0.4155269329512637 -0.010623222301324052
0.08353057148054734 0.4227823915463633 -0.010421678637468618
0.07705120062852529 0.4104111867948719 -0.009713247673729946
0.07262997112773387 0.4057782949889477 -0.009179727372536774
0.07269281140155875 0.42451706133278694 -0.009135408262836323
0.07242563677804137 0.43821369411628885 -0.008287236676443979
0.0732621787864854 0.45910098428996404 -0.007793075664919767
0.06753723862682677 0.43713742196889166 -0.006394879647750309
0.06764380670949191 0.45118467568488874 -0.005398286993799777
0.06379274346122325 0.43770916679755023 -0.003965677309936851
0.06261915841388148 0.44145689326456294 -0.0026428534252764795
0.06089964953902152 0.44790825530308276 -0.0010200993564352734
0.059352944587247276 0.4542062268558656 0.0004453827646845589
0.05750723907048668 0.46041674097448176 0.0018995854384676143
0.055985617459707725 0.472035826505134 0.003335096018926994
0.05400571227971541 0.48316732181050215 0.004690953251301563
0.05134113703150237 0.4915461104789461 0.005887412324003373
0.04847513463435146 0.50129047292823 0.006923691827213449
0.044691656223194084 0.504227098340183 0.007652543588983097
0.03914307247600741 0.49898468057605716 0.007153074547292368
0.0352178833840265 0.5050853686101069 0.007175340496400763
0.030507995444752 0.49951054019848085 0.0067702773208641615
0.02653298581454816 0.5043893637044112 0.006273252923764162
0.02296569748492837 0.5171384022039608 0.005650947530006671
0.02020088740630755 0.5494755398663596 0.005153007078329205
0.017413193009828593 0.5915823981845708 0.004292005243348511
0.014208378801855851 0.6272142878949891 0.0031222796586342504
0.010944361594984046 0.6654206573170084 0.0017367318599921832
0.007536004711965131 0.6955700474423915 0.0001437538251694222
0.004283940114923157 0.7364053692014784 -0.001608513896190036
0.0011314100661803557 0.9044133564117557 -0.004239987072024337
-0.0025850002272318623 1.0271707966705985 -0.007144777379357983
-0.007288753766517034 1.2695189087505605 -0.011542425806071028
-0.01168621431419032 1.3803195487119966 -0.015300723460153048
-0.01559400216151818 1.451596098182545 -0.018765876562654018
-0.019200007104724585 1.5206890790552468 -0.022225996772731946
-0.022249035632039334 1.5700849211669643 -0.02534594233327411
-0.025268558721584268 1.638079628729497 -0.028666296653220204
0.20628023835640968 0.16403704674633368 -0.005589000110950071
0.242980190905846 0.28752730669612203 -0.009417006988733772
0.0016550732723488778 0.002592354296575415 -8.275379469952935e-5
0.015092636435648633 0.029353380753133432 -0.0009162417694852269
0.06428180998148744 0.14898960711033205 -0.00455137521969249
0.048920353692166435 0.1311277765112899 -0.003923474956386615
0.06463976296351075 0.19567458393581452 -0.005740198882153377
0.0805560194658826 0.2719198353086547 -0.007540641336698602
0.08677688143266625 0.3194859109145961 -0.008903403919360179
0.09022021557461386 0.35835335742459895 -0.00989828578819148
0.08780049245504075 0.37325238811866696 -0.01011667274071173
0.08991837552836934 0.40679225960494 -0.010737951773735172
0.08668124186881584 0.4155269329512637 -0.010623222301324052
0.08353057148054734 0.4227823915463633 -0.010421678637468618
0.07705120062852529 0.4104111867948719 -0.009713247673729946
0.07262997112773387 0.4057782949889477 -0.009179727372536774
0.07269281140155875 0.42451706133278694 -0.009135408262836323
0.07242563677804137 0.43821369411628885 -0.008287236676443979
0.0732621787864854 0.45910098428996404 -0.007793075664919767
0.06753723862682677 0.43713742196889166 -0.006394879647750309
0.06764380670949191 0.45118467568488874 -0.005398286993799777
0.06379274346122325 0.43770916679755023 -0.003965677309936851