# vtk DataFile Version 4.0
[MyVLM domain - lattices] 
ASCII
DATASET UNSTRUCTURED_GRID
POINTS 152 float
0.0018916144324157278 -0.0073965400013164965 -0.006910949185701831
0.0010688609733395774 -0.008042159981716694 -0.011119962513802983
0.00045780959861706216 -0.008693746002584908 -0.015253226863852384
-0.00013255382275044122 -0.009214775039563408 -0.01929879801890845
-0.0007201482309470062 -0.009662567567103703 -0.023261690870673625
-0.0011946371146526612 -0.009888110172228593 -0.02712886843479909
-0.0014108622120167862 -0.009588737109733013 -0.030873850889741778
-0.0013224843579428829 -0.009016769400086647 -0.03451871346436209
-0.0010167791708201568 -0.008540503860841006 -0.03809567795500844
-0.0006138083932142036 -0.00791360236019215 -0.04158319256775385
-0.00020084691410191335 -0.007249811413714541 -0.04499120883322664
0.0001698744379422134 -0.006692031546935614 -0.04833222892742236
0.0004739400232210948 -0.0061668779064184675 -0.05159983250759078
0.0007082255455298663 -0.005592856689197253 -0.054786889789824766
0.0008836440760600275 -0.004981679510956808 -0.05789442540772832
0.001017516815515788 -0.0043923618242951755 -0.06092760254437661
0.0011275777072549662 -0.0038789561051654573 -0.06389115017865106
0.0012277625198140337 -0.0034549696619907188 -0.06678625004691341
0.00132638558954348 -0.0030867059217435087 -0.0696099540810241
0.0014271324949937316 -0.0027245301028130053 -0.07235791980027563
0.0015306083418583354 -0.0023356768970536623 -0.07502728061164828
0.0016355657532635378 -0.0019194025829184249 -0.07761797144793788
0.0017398364473795213 -0.001495769303545425 -0.08013174751923505
0.0018410131526058282 -0.0010879833398828537 -0.08257063911204536
0.001936923789896676 -0.0007131002762408945 -0.08493613839664575
0.0020259353317291845 -0.000380646526280177 -0.08722907882623561
0.0021071205190511294 -9.314148328940078e-5 -0.08944968081916663
0.002180316672546981 0.00015305217330244736 -0.09159762615112325
0.0022461021518325993 0.0003666714056439232 -0.09367215043696384
0.0023056987632523672 0.0005602402899110677 -0.09567215796200182
0.0023607022647827588 0.0007474386203990523 -0.09759645189931702
0.0024126938092907785 0.0009395686834284097 -0.09944404342698449
0.0024629658139780817 0.0011433075701865127 -0.10121434837521995
0.0025123806343549317 0.0013598548290543826 -0.10290726179713876
0.0025613283706516186 0.00158509142059447 -0.1045231440619963
0.0026097549007438213 0.0018104232204813528 -0.10606274705824396
0.0026572361369983943 0.002024049569044432 -0.10752710320982509
0.002703078927872171 0.0022132872276991486 -0.10891732215633258
0.0027464329900004744 0.0023701628177072885 -0.1102341014780161
0.0027864017842759935 0.0024960480991915958 -0.11147732116141576
0.0028221433614242725 0.002602116553185107 -0.11264600365360905
0.0028529549202113143 0.002706969539013185 -0.11373852154652887
0.002878337166053322 0.0028334615102276095 -0.11475287533457833
0.0028980365508205295 0.0030097136634290836 -0.1156866047318501
0.0029120651374179955 0.0032704085805864394 -0.11653667540560009
0.002920699186668212 0.0036508782257948166 -0.11729999620950987
0.0029244586304951574 0.004177690217108938 -0.11797424277818278
0.002924070395798875 0.004859971463177345 -0.118558616610579
0.0029204190990956736 0.005683936348000605 -0.11905432379181825
0.0029144889643634465 0.006611680508523138 -0.11946468052396603
0.002907300946956263 0.007584248047592841 -0.11979484477967114
0.006212993241944028 0.007143239703864034 -0.005638883291334222
0.0072288922610571306 0.010544473782808395 -0.009493842766298857
0.007974780507892725 0.012435621179605673 -0.013404646767933995
0.008270023946844132 0.013377416603174213 -0.01732223736596377
0.008140225139500825 0.013630290688504585 -0.021223829832191652
0.007751519283975376 0.013577288884210195 -0.02507591203224877
0.007318662739924205 0.013685621069221094 -0.028837608398241413
0.0069707766105224795 0.013812607607406038 -0.03252140178084708
0.006702226685381192 0.013663707063451278 -0.036153061216594375
0.006460614097576536 0.01353899293128342 -0.039706333676540105
0.006208498480286784 0.013366887531169084 -0.04318748139622242
0.005928720355726676 0.013037932408631846 -0.046606080749535095
0.00562110152420414 0.01265173352022194 -0.049953417344460314
0.005297776270156929 0.012310399962752027 -0.053220557792584104
0.004977662142563614 0.01201843999935396 -0.05640710767199023
0.004680078492205027 0.011729680937641136 -0.059517106569827
0.0044193472589770496 0.01140046162361704 -0.06255437434210556
0.0042022226504668725 0.01102572409492216 -0.06551935350319289
0.004028605706719037 0.010645765663451066 -0.0684085184951277
0.003894567528214928 0.010314836972895368 -0.07121712300159795
0.003794542923454683 0.010068409775441437 -0.07394206364641194
0.0037223892098821663 0.009908263858147288 -0.0765831847183786
0.0036720478837599236 0.009813949338757125 -0.07914227535036576
0.0036379885391020494 0.00976067985426139 -0.08162150406814679
0.003615480687410345 0.009728845381810671 -0.0840225865264125
0.003600729157216099 0.00970559575995527 -0.0863466469686142
0.0035909263662617956 0.009684506735709053 -0.08859424744405982
0.003584242976167935 0.009664901439680323 -0.09076544717114782
0.00357976601221264 0.009650950012742528 -0.09285988130982645
0.003577378730160166 0.009650499351827713 -0.09487686334557031
0.0035774796054096774 0.009672568890649273 -0.09681560418017807
0.003580588564800478 0.009723929042600964 -0.09867551147923036
0.0035870678637920984 0.00980694971202037 -0.10045637790296402
0.0035969747054953923 0.009918828340016055 -0.10215844864351092
0.0036100119296844893 0.010051813294820803 -0.10378240188077452
0.0036255480079795204 0.010194096014250672 -0.10532927073007843
0.0036426825552804717 0.010331112848337648 -0.10680032934569443
0.0036603380175139954 0.01044788766634587 -0.10819688796928542
0.003677362157174432 0.010534629228203148 -0.1095198032233595
0.0036926294639041822 0.010591358789297782 -0.11076907324831121
0.0037051326977571345 0.010628347665057132 -0.11194379942048116
0.003714058455611533 0.010663714411000731 -0.11304239657166192
0.003718842962038476 0.010720212573153573 -0.11406287402452125
0.003719206248598144 0.010826199913236684 -0.11500275079638567
0.003715164522496519 0.011016883229667995 -0.11585894669151449
0.0037070218583473346 0.01132835269988252 -0.11662830422851753
0.003695343396461056 0.011788112209010815 -0.11730841712924299
0.003680913018392471 0.012406346256468637 -0.11789839436544823
0.0036646790161518838 0.013170392062492143 -0.11839934378681136
0.003647691596346039 0.01404347927623101 -0.11881448238218567
0.0036310361855396924 0.01496774638615417 -0.11914887237788455
0.005410766489344848 0.0047030550596230125 -0.007928636234050507
0.005892211109850776 0.006525547362867576 -0.01188358224754424
0.006132458642509649 0.007441324038273917 -0.015841584660556764
0.006047255650667177 0.007768222408546162 -0.01977483631050604
0.005720055990603616 0.007759007622351502 -0.023661223112349247
0.005325630843128663 0.007788985322291532 -0.027467910077001428
0.005016871435172548 0.007986147440007717 -0.03118369936142117
0.004834968294868498 0.008108958843955535 -0.034829722551461856
0.004732241848104854 0.008144249220396367 -0.038407131900270716
0.00464908530328423 0.008194278451681351 -0.04190698082740851
0.004547585503985086 0.008159077107344077 -0.04533801552474019
0.004411660012619469 0.008026261041650908 -0.04870131946462492
0.004242349868979272 0.007890833231663272 -0.051988580963568606
0.00405227310746894 0.0078014979607704885 -0.055195538948909516
0.003859297849485217 0.0077337901844666615 -0.05832433383469458
0.0036804214720396232 0.0076398887192892385 -0.06137914943235317
0.003527506244425096 0.007493078923557678 -0.06436232297018248
0.003405829147614405 0.007309099211423183 -0.06727247751536242
0.003315379723667389 0.007133821485560348 -0.07010559979643459
0.003253134023982613 0.0070111916556429696 -0.0728578450444942
0.003214621311891553 0.006959367677599261 -0.07552762464424473
0.0031948391851961662 0.006968933463031173 -0.07811576239667577
0.0031888698585714084 0.007017516866953408 -0.08062421561085227
0.0031922930777549615 0.007083436511511554 -0.08305488116154612
0.003201436081938149 0.007151197077847095 -0.08540911471349519
0.0032135028026517493 0.007212064934677924 -0.08768768036042804
0.003226618152360912 0.007263516902022646 -0.0898907988519891
0.0032398057236901635 0.007308409742026866 -0.09201822025387624
0.003252904392775423 0.007353907473658215 -0.0940693177956445
0.003266372004343082 0.007409610454717636 -0.0960432515548205
0.0032809500730880004 0.0074845626379472716 -0.09793923028806585
0.0032973286136308236 0.007584439064684867 -0.09975675749359846
0.0033159342695244357 0.00771006206941877 -0.10149576122647296
0.0033368336138182735 0.007857108894269929 -0.10315661967899893
0.0033597203855484335 0.008016655321036282 -0.1047401136190999
0.0033839603409402744 0.008176262422161344 -0.10624733131192346
0.003408672097906746 0.008321792292599267 -0.10767950966388715
0.0034328265552422406 0.008441375091131686 -0.10903768715153543
0.0034553512046890385 0.00853052187117521 -0.11032225650680551
0.003475228953835527 0.008594660501930182 -0.11153274285267524
0.0034915839677176984 0.008648159040046486 -0.11266788914707092
0.0035037495424018335 0.008711526500212964 -0.1137259010837071
0.0035113151685979642 0.008810301579103433 -0.11470454431614366
0.003514151750190315 0.008976171459091195 -0.11560104657514385
0.003512415433327221 0.0092446243243791 -0.11641230304690077
0.0035065316976985676 0.00964724539619797 -0.11713555038262179
0.0034971622838568268 0.010202629634590581 -0.11776916173410443
0.003485158199815951 0.010909265346007536 -0.11831326935739701
0.0034715024876191118 0.01174215385908665 -0.11877006035284692
0.003457246657122113 0.01265370069290894 -0.11914369869798098

CELLS 100 350
4 0 51 52 1
4 1 52 53 2
4 2 53 54 3
4 3 54 55 4
4 4 55 56 5
4 5 56 57 6
4 6 57 58 7
4 7 58 59 8
4 8 59 60 9
4 9 60 61 10
4 10 61 62 11
4 11 62 63 12
4 12 63 64 13
4 13 64 65 14
4 14 65 66 15
4 15 66 67 16
4 16 67 68 17
4 17 68 69 18
4 18 69 70 19
4 19 70 71 20
4 20 71 72 21
4 21 72 73 22
4 22 73 74 23
4 23 74 75 24
4 24 75 76 25
4 25 76 77 26
4 26 77 78 27
4 27 78 79 28
4 28 79 80 29
4 29 80 81 30
4 30 81 82 31
4 31 82 83 32
4 32 83 84 33
4 33 84 85 34
4 34 85 86 35
4 35 86 87 36
4 36 87 88 37
4 37 88 89 38
4 38 89 90 39
4 39 90 91 40
4 40 91 92 41
4 41 92 93 42
4 42 93 94 43
4 43 94 95 44
4 44 95 96 45
4 45 96 97 46
4 46 97 98 47
4 47 98 99 48
4 48 99 100 49
4 49 100 101 50
1 102
1 103
1 104
1 105
1 106
1 107
1 108
1 109
1 110
1 111
1 112
1 113
1 114
1 115
1 116
1 117
1 118
1 119
1 120
1 121
1 122
1 123
1 124
1 125
1 126
1 127
1 128
1 129
1 130
1 131
1 132
1 133
1 134
1 135
1 136
1 137
1 138
1 139
1 140
1 141
1 142
1 143
1 144
1 145
1 146
1 147
1 148
1 149
1 150
1 151

CELL_TYPES 100
9
9
9
9
9
9
9
9
9
9
9
9
9
9
9
9
9
9
9
9
9
9
9
9
9
9
9
9
9
9
9
9
9
9
9
9
9
9
9
9
9
9
9
9
9
9
9
9
9
9
1
1
1
1
1
1
1
1
1
1
1
1
1
1
1
1
1
1
1
1
1
1
1
1
1
1
1
1
1
1
1
1
1
1
1
1
1
1
1
1
1
1
1
1
1
1
1
1
1
1

CELL_DATA 100

VECTORS S float
8.7615459191906e-19 -3.1907813279942e-19 -2.4096827346108e-19
-3.6754417822798e-19 1.7924293927608998e-19 -5.8168753326206e-19
8.055338533415799e-19 -7.4145223254901e-19 4.2341645990845695e-18
7.163077132996e-20 -3.1867210242757996e-19 2.26062299902786e-18
-1.2529266902249e-19 1.16591340541591e-18 -7.97980821108226e-18
4.669228582118e-20 -8.465866113251099e-19 5.49206622455244e-18
2.463758372514e-20 -9.3138594357776e-19 5.7228395197396495e-18
-1.4762338703059998e-20 1.85357631834049e-18 -1.0809504223062809e-17
1.784199387349e-20 5.31034508374576e-18 -2.9727690744276516e-17
-8.24955753203e-21 -5.504538943677299e-19 2.93133013579127e-18
5.319064428409099e-19 2.3083465684155097e-17 -1.1817873331706489e-16
4.1881668861709e-19 1.441653785638053e-17 -7.137422491658783e-17
-5.201949809006899e-19 -1.538337292153061e-17 7.404451975784661e-17
-5.4035858941358e-19 -1.4425912237311538e-17 6.781044090763165e-17
3.691614663497e-19 9.373095401230359e-18 -4.317796142588516e-17
-7.704749994392e-20 -1.88020843864876e-18 8.480092299055549e-18
-3.4393477582934e-19 -8.33868173267177e-18 3.708434079264883e-17
2.2501011690754e-19 5.48834583407432e-18 -2.410548531832549e-17
3.1412594991027e-19 7.65689890437522e-18 -3.3257580444826297e-17
-5.489767413221e-20 -1.30243002342619e-18 5.6010029712644794e-18
2.5979051161258e-19 6.2255170966304095e-18 -2.652404009795099e-17
3.3005833892239e-19 8.12944505338458e-18 -3.43370744833885e-17
2.4327209728197e-19 6.1529685331033395e-18 -2.5816223778718458e-17
-1.8588611335522998e-19 -4.8000312965325394e-18 2.005203692645182e-17
-2.5704722056116e-19 -6.84064322395658e-18 2.848770257642356e-17
2.1886863099476e-19 6.0356824491890695e-18 -2.509162267780118e-17
5.576473244765e-20 1.6148679615906e-18 -6.71122405149375e-18
2.9506445365333e-19 9.080596690295069e-18 -3.7781638033103875e-17
-2.1709926630591e-19 -7.19536513728508e-18 3.0015848809035177e-17
-1.7539032486506999e-19 -6.34475606850594e-18 2.6573031619101478e-17
-1.9831360254263e-19 -7.82190928058049e-18 3.293204858068421e-17
9.367485189384999e-20 4.13623489257451e-18 -1.753333360715425e-17
1.1788500672544e-19 5.786966512502829e-18 -2.471620474348871e-17
-1.6829906361699999e-21 -9.002382882792999e-20 3.8757299192731e-19
-2.288796434297e-20 -1.3237082210342098e-18 5.74609797612556e-18
-3.235457134196e-20 -2.01268159450171e-18 8.81036064669051e-18
7.082367781420999e-20 4.64331911024865e-18 -2.0496507483536378e-17
-4.8131232155619996e-20 -3.3029131151978997e-18 1.4700047162176808e-17
-3.328681000383e-20 -2.41825034509309e-18 1.085393442380939e-17
-1.464841534826e-20 -1.09967780968078e-18 4.9741996553433796e-18
3.755350497994e-20 2.95327567205392e-18 -1.3455855213743469e-17
2.541315436874e-20 2.00124033875064e-18 -9.17953063033305e-18
1.1198035346858999e-19 7.386221569120969e-18 -3.408889796045444e-17
-1.925938967075e-20 -1.11672898005431e-18 5.1826343378430995e-18
-1.0610229723264e-19 -4.70435168839179e-18 2.1941130514260398e-17
-6.967075979646e-20 -2.27939380356258e-18 1.0677732714781529e-17
-1.5417473181651998e-19 -3.8603049946646595e-18 1.8152394801921818e-17
3.4773142359281e-19 6.446653156595169e-18 -3.0412988921573415e-17
-1.9704837780983e-19 -2.6177013686277398e-18 1.2382939765316019e-17
2.2870459115353e-19 1.5276209999180898e-18 -7.2404830588487e-18
8.7615459191906e-19 -3.1907813279942e-19 -2.4096827346108e-19
-3.6754417822798e-19 1.7924293927608998e-19 -5.8168753326206e-19
8.055338533415799e-19 -7.4145223254901e-19 4.2341645990845695e-18
7.163077132996e-20 -3.1867210242757996e-19 2.26062299902786e-18
-1.2529266902249e-19 1.16591340541591e-18 -7.97980821108226e-18
4.669228582118e-20 -8.465866113251099e-19 5.49206622455244e-18
2.463758372514e-20 -9.3138594357776e-19 5.7228395197396495e-18
-1.4762338703059998e-20 1.85357631834049e-18 -1.0809504223062809e-17
1.784199387349e-20 5.31034508374576e-18 -2.9727690744276516e-17
-8.24955753203e-21 -5.504538943677299e-19 2.93133013579127e-18
5.319064428409099e-19 2.3083465684155097e-17 -1.1817873331706489e-16
4.1881668861709e-19 1.441653785638053e-17 -7.137422491658783e-17
-5.201949809006899e-19 -1.538337292153061e-17 7.404451975784661e-17
-5.4035858941358e-19 -1.4425912237311538e-17 6.781044090763165e-17
3.691614663497e-19 9.373095401230359e-18 -4.317796142588516e-17
-7.704749994392e-20 -1.88020843864876e-18 8.480092299055549e-18
-3.4393477582934e-19 -8.33868173267177e-18 3.708434079264883e-17
2.2501011690754e-19 5.48834583407432e-18 -2.410548531832549e-17
3.1412594991027e-19 7.65689890437522e-18 -3.3257580444826297e-17
-5.489767413221e-20 -1.30243002342619e-18 5.6010029712644794e-18
2.5979051161258e-19 6.2255170966304095e-18 -2.652404009795099e-17
3.3005833892239e-19 8.12944505338458e-18 -3.43370744833885e-17
2.4327209728197e-19 6.1529685331033395e-18 -2.5816223778718458e-17
-1.8588611335522998e-19 -4.8000312965325394e-18 2.005203692645182e-17
-2.5704722056116e-19 -6.84064322395658e-18 2.848770257642356e-17
2.1886863099476e-19 6.0356824491890695e-18 -2.509162267780118e-17
5.576473244765e-20 1.6148679615906e-18 -6.71122405149375e-18
2.9506445365333e-19 9.080596690295069e-18 -3.7781638033103875e-17
-2.1709926630591e-19 -7.19536513728508e-18 3.0015848809035177e-17
-1.7539032486506999e-19 -6.34475606850594e-18 2.6573031619101478e-17
-1.9831360254263e-19 -7.82190928058049e-18 3.293204858068421e-17
9.367485189384999e-20 4.13623489257451e-18 -1.753333360715425e-17
1.1788500672544e-19 5.786966512502829e-18 -2.471620474348871e-17
-1.6829906361699999e-21 -9.002382882792999e-20 3.8757299192731e-19
-2.288796434297e-20 -1.3237082210342098e-18 5.74609797612556e-18
-3.235457134196e-20 -2.01268159450171e-18 8.81036064669051e-18
7.082367781420999e-20 4.64331911024865e-18 -2.0496507483536378e-17
-4.8131232155619996e-20 -3.3029131151978997e-18 1.4700047162176808e-17
-3.328681000383e-20 -2.41825034509309e-18 1.085393442380939e-17
-1.464841534826e-20 -1.09967780968078e-18 4.9741996553433796e-18
3.755350497994e-20 2.95327567205392e-18 -1.3455855213743469e-17
2.541315436874e-20 2.00124033875064e-18 -9.17953063033305e-18
1.1198035346858999e-19 7.386221569120969e-18 -3.408889796045444e-17
-1.925938967075e-20 -1.11672898005431e-18 5.1826343378430995e-18
-1.0610229723264e-19 -4.70435168839179e-18 2.1941130514260398e-17
-6.967075979646e-20 -2.27939380356258e-18 1.0677732714781529e-17
-1.5417473181651998e-19 -3.8603049946646595e-18 1.8152394801921818e-17
3.4773142359281e-19 6.446653156595169e-18 -3.0412988921573415e-17
-1.9704837780983e-19 -2.6177013686277398e-18 1.2382939765316019e-17
2.2870459115353e-19 1.5276209999180898e-18 -7.2404830588487e-18

SCALARS Gamma float
LOOKUP_TABLE default
-4.0287885191548874e-5
0.0005763898808841054
0.0030476520398561315
0.025635030827382974
0.05614250304400629
0.1021466026314568
0.1498575216078285
0.19394810289186176
0.23495016926501544
0.267400826277175
0.2867598002882136
0.28955266366154125
0.28084450947869255
0.25551302622698846
0.24235880862376835
0.2338223239268074
0.22263484187938706
0.21705309463384326
0.21146752501530042
0.20303429802043815
0.20105996141864027
0.19719845639922534
0.1923796303954746
0.1888580595779752
0.18610503883257062
0.1851074875870568
0.18557869747444117
0.18615676398852818
0.1882319157383264
0.1914916705465901
0.19196044494734646
0.20015339827961037
0.19941131090310601
0.1985788401192254
0.1974845713432069
0.19581584052343717
0.19364263612054347
0.19105465863563795
0.18846112870780668
0.18279507974563103
0.17916427477065003
0.1707285659849939
0.1581551655406352
0.1463664150473189
0.13050300898001915
0.09998796134171206
0.07768840847899594
0.058679487966920504
0.04242444853535816
0.02201227102048763
-4.0287885191548874e-5
0.0005763898808841054
0.0030476520398561315
0.025635030827382974
0.05614250304400629
0.1021466026314568
0.1498575216078285
0.19394810289186176
0.23495016926501544
0.267400826277175
0.2867598002882136
0.28955266366154125
0.28084450947869255
0.25551302622698846
0.24235880862376835
0.2338223239268074
0.22263484187938706
0.21705309463384326
0.21146752501530042
0.20303429802043815
0.20105996141864027
0.19719845639922534
0.1923796303954746
0.1888580595779752
0.18610503883257062
0.1851074875870568
0.18557869747444117
0.18615676398852818
0.1882319157383264
0.1914916705465901
0.19196044494734646
0.20015339827961037
0.19941131090310601
0.1985788401192254
0.1974845713432069
0.19581584052343717
0.19364263612054347
0.19105465863563795
0.18846112870780668
0.18279507974563103
0.17916427477065003
0.1707285659849939
0.1581551655406352
0.1463664150473189
0.13050300898001915
0.09998796134171206
0.07768840847899594
0.058679487966920504
0.04242444853535816
0.02201227102048763

VECTORS Ftot float
0.007200239325682221 0.017447711765992288 0.0030765023359689923
0.01051910894792694 0.050423218817101476 0.008890973931621797
-0.0007487318656269197 0.11722104025600345 0.020669232103846604
-0.26443544854079637 0.23695885745689851 0.04178223988750262
-0.7475079396431198 0.38839037831294554 0.06848370274414045
-1.6228147698878608 0.6220438555059944 0.10968311490962511
-2.739804881388195 0.8686971408809818 0.1531747440016202
-3.987117319931267 1.1226042101653861 0.19794541090907442
-5.344054867450428 1.3909120432540087 0.2452553210180222
-6.652676659195403 1.6342915690866164 0.28816969797434394
-7.7246263137719025 1.8298921749592576 0.3226593622326133
-8.384874613968538 1.9175754150048299 0.3381202832085847
-8.685537790089386 1.941357830418019 0.34231376471234687
-8.394852040918975 1.8371985170747525 0.3239476674778617
-8.426794739883185 1.767872927204867 0.3117236955302714
-8.57096612413931 1.715520853018222 0.30249261235511465
-8.568442354204485 1.6374761527567572 0.2887312259977134
-8.742972950541256 1.58919131214256 0.28021730583822246
-8.885603873682156 1.556988943982416 0.27453915948888186
-8.869410177271355 1.5466195661515352 0.27271075840413733
-9.115752931529922 1.5292302384847176 0.2696445507600972
-9.260442190570512 1.4730817808230838 0.2597440627491842
-9.330626863035786 1.4179032010640789 0.2500145903804976
-9.444148258710802 1.3885261122704995 0.2448346170115212
-9.578687041505914 1.35470968335571 0.23887186820263392
-9.789407507919869 1.3296869414319645 0.23445968367017278
-10.069072305280772 1.301278358034963 0.22945048393357484
-10.34744109259978 1.2623286081734653 0.22258259214114698
-10.703716789327894 1.2212615702115854 0.2153413653306888
-11.12487805684941 1.1759763393363143 0.20735635729976637
-11.377952972294736 1.1197470038927282 0.19744160835375538
-12.090328723241598 1.0841677972442818 0.1911680342694322
-12.25982242665711 1.0114894438447177 0.17835287965162425
-12.411104479016752 0.9632691648900841 0.16985034345463373
-12.534194893926784 0.9238883034418774 0.162906435057773
-12.608729237333652 0.8884368352398356 0.15665538470802481
-12.63782479384289 0.8696361741383926 0.15334032090068425
-12.626940618011291 0.8549047177058912 0.150742767666503
-12.603077330632035 0.8316987951426823 0.14665093740637788
-12.358554580200604 0.8132955159456245 0.1434059427504258
-12.23678063369659 0.7914194145687559 0.13954859584497023
-11.770396657925856 0.7817316497337831 0.13784038152180583
-10.997448169791427 0.8953555795153814 0.15787534599642578
-10.258269749621007 0.9737656763300448 0.17170116162481389
-9.212413708055104 1.16985439262521 0.2062768929201393
-7.10474564257885 1.2480238981132479 0.2200602858063188
-5.553223154838147 1.2981112156611327 0.22889203128132352
-4.21738647111992 1.3528479383845717 0.23854359233302397
-3.064683126018515 1.3906365058445465 0.24520673633853954
-1.6002350249702233 1.45850758889837 0.25717423949083373
0.007200239325682221 0.017447711765992288 0.0030765023359689923
0.01051910894792694 0.050423218817101476 0.008890973931621797
-0.0007487318656269197 0.11722104025600345 0.020669232103846604
-0.26443544854079637 0.23695885745689851 0.04178223988750262
-0.7475079396431198 0.38839037831294554 0.06848370274414045
-1.6228147698878608 0.6220438555059944 0.10968311490962511
-2.739804881388195 0.8686971408809818 0.1531747440016202
-3.987117319931267 1.1226042101653861 0.19794541090907442
-5.344054867450428 1.3909120432540087 0.2452553210180222
-6.652676659195403 1.6342915690866164 0.28816969797434394
-7.7246263137719025 1.8298921749592576 0.3226593622326133
-8.384874613968538 1.9175754150048299 0.3381202832085847
-8.685537790089386 1.941357830418019 0.34231376471234687
-8.394852040918975 1.8371985170747525 0.3239476674778617
-8.426794739883185 1.767872927204867 0.3117236955302714
-8.57096612413931 1.715520853018222 0.30249261235511465
-8.568442354204485 1.6374761527567572 0.2887312259977134
-8.742972950541256 1.58919131214256 0.28021730583822246
-8.885603873682156 1.556988943982416 0.27453915948888186
-8.869410177271355 1.5466195661515352 0.27271075840413733
-9.115752931529922 1.5292302384847176 0.2696445507600972
-9.260442190570512 1.4730817808230838 0.2597440627491842
-9.330626863035786 1.4179032010640789 0.2500145903804976
-9.444148258710802 1.3885261122704995 0.2448346170115212
-9.578687041505914 1.35470968335571 0.23887186820263392
-9.789407507919869 1.3296869414319645 0.23445968367017278
-10.069072305280772 1.301278358034963 0.22945048393357484
-10.34744109259978 1.2623286081734653 0.22258259214114698
-10.703716789327894 1.2212615702115854 0.2153413653306888
-11.12487805684941 1.1759763393363143 0.20735635729976637
-11.377952972294736 1.1197470038927282 0.19744160835375538
-12.090328723241598 1.0841677972442818 0.1911680342694322
-12.25982242665711 1.0114894438447177 0.17835287965162425
-12.411104479016752 0.9632691648900841 0.16985034345463373
-12.534194893926784 0.9238883034418774 0.162906435057773
-12.608729237333652 0.8884368352398356 0.15665538470802481
-12.63782479384289 0.8696361741383926 0.15334032090068425
-12.626940618011291 0.8549047177058912 0.150742767666503
-12.603077330632035 0.8316987951426823 0.14665093740637788
-12.358554580200604 0.8132955159456245 0.1434059427504258
-12.23678063369659 0.7914194145687559 0.13954859584497023
-11.770396657925856 0.7817316497337831 0.13784038152180583
-10.997448169791427 0.8953555795153814 0.15787534599642578
-10.258269749621007 0.9737656763300448 0.17170116162481389
-9.212413708055104 1.16985439262521 0.2062768929201393
-7.10474564257885 1.2480238981132479 0.2200602858063188
-5.553223154838147 1.2981112156611327 0.22889203128132352
-4.21738647111992 1.3528479383845717 0.23854359233302397
-3.064683126018515 1.3906365058445465 0.24520673633853954
-1.6002350249702233 1.45850758889837 0.25717423949083373

VECTORS D float
0.006987180093078497 0.017652343836539 0.0020308607651581137
0.014625258518549582 0.049559553009364994 0.006030336093614437
0.02835589276772806 0.11060539243892113 0.013973708911189063
0.04033467106927568 0.16516744246335377 0.02200501921980951
0.048630337055956124 0.20619527358743875 0.029363213085545226
0.05677296163967196 0.24706976608662037 0.03760244109168467
0.058151471574923536 0.2593628049755805 0.04196066625024147
0.05760013664122083 0.2630255332900837 0.045024043365518754
0.05782941011342613 0.2702664167094909 0.048313195317140394
0.060159662091809486 0.29114086371759973 0.054840603203868195
0.06540840694073356 0.3282382762264225 0.06440810393647588
0.0679193820866881 0.3551713281546701 0.07213789956470137
0.07220993872366033 0.3951159107675652 0.08259596618715005
0.07194659359797878 0.41313033197245036 0.08846217177096333
0.06779318268458798 0.4092299069720993 0.08941546711142173
0.06373379162297539 0.4054194902715049 0.0904687884344256
0.05894808817424587 0.39496984252085665 0.08935852808616139
0.054546444233398744 0.3842027095617259 0.08798457339685474
0.05277465392429192 0.3899479813193017 0.09027626541272649
0.05597415363872312 0.43304895823613165 0.1012477262690029
0.05379105429415598 0.43516137491537105 0.10266456296959289
0.04856842841962869 0.41065801643713823 0.09769184607700575
0.045710110281487526 0.4107338997731733 0.09832393679786779
0.04460057765799262 0.4234176678180159 0.10177064268086984
0.04288247571491412 0.43191113117855734 0.10410010305624394
0.04146030091832837 0.44558303752728595 0.10754474165394602
0.039392739505432824 0.45501461464278453 0.10981383472914925
0.03673000159448067 0.4598654962322552 0.11081284557467677
0.033764174782544294 0.46261490941204486 0.1111417301562451
0.030546947036735387 0.4628257026601107 0.11070900252355732
0.027569659002072838 0.4671147521984416 0.11111354475108069
0.024607833418820207 0.4742683336201429 0.1120146578578964
0.02133220797735486 0.46953966743668873 0.11003813520136828
0.019174429046865758 0.48750461564047604 0.11331878993266353
0.01722254207872102 0.5121474601962137 0.11805019600969122
0.015258733130271738 0.5382506724677439 0.12301663404446087
0.013571706837185253 0.5773313388437099 0.13083667248895473
0.011773913080886439 0.6161494870935177 0.13847948189072803
0.009679879204805508 0.6424328256969137 0.14316335017945303
0.00774164018961562 0.6692329339679446 0.1479743598474984
0.0058103273879308364 0.6852252702224207 0.15040867239087194
0.00410627036230906 0.7099333209800466 0.15478477171327
0.002943462543471778 0.8515582406046193 0.18452129081408208
0.0013954276920994883 0.951536512387487 0.20503767095612618
-0.00025714703634279867 1.16267070551128 0.24928453932988942
-0.0020555794869700295 1.249735819093281 0.26676982318572906
-0.0037069397372352444 1.3036201384441701 0.2771975747579542
-0.005235708132432631 1.358614859855042 0.2879262599680773
-0.006561574719724974 1.3945661052975449 0.2947009937855186
-0.007893652078381339 1.4566175625736064 0.30707264210064744
0.006987180093078497 0.017652343836539 0.0020308607651581137
0.014625258518549582 0.049559553009364994 0.006030336093614437
0.02835589276772806 0.11060539243892113 0.013973708911189063
0.04033467106927568 0.16516744246335377 0.02200501921980951
0.048630337055956124 0.20619527358743875 0.029363213085545226
0.05677296163967196 0.24706976608662037 0.03760244109168467
0.058151471574923536 0.2593628049755805 0.04196066625024147
0.05760013664122083 0.2630255332900837 0.045024043365518754
0.05782941011342613 0.2702664167094909 0.048313195317140394
0.060159662091809486 0.29114086371759973 0.054840603203868195
0.06540840694073356 0.3282382762264225 0.06440810393647588
0.0679193820866881 0.3551713281546701 0.07213789956470137
0.07220993872366033 0.3951159107675652 0.08259596618715005
0.07194659359797878 0.41313033197245036 0.08846217177096333
0.06779318268458798 0.4092299069720993 0.08941546711142173
0.06373379162297539 0.4054194902715049 0.0904687884344256
0.05894808817424587 0.39496984252085665 0.08935852808616139
0.054546444233398744 0.3842027095617259 0.08798457339685474
0.05277465392429192 0.3899479813193017 0.09027626541272649
0.05597415363872312 0.43304895823613165 0.1012477262690029
0.05379105429415598 0.43516137491537105 0.10266456296959289
0.04856842841962869 0.41065801643713823 0.09769184607700575
0.045710110281487526 0.4107338997731733 0.09832393679786779
0.04460057765799262 0.4234176678180159 0.10177064268086984
0.04288247571491412 0.43191113117855734 0.10410010305624394