# vtk DataFile Version 4.0
[MyVLM domain - lattices] 
ASCII
DATASET UNSTRUCTURED_GRID
POINTS 152 float
0.0018916144324157278 0.009314157889594945 0.003964402281065998
0.0010688609733395774 0.011360409562745765 0.007698766008041724
0.00045780959861706216 0.013386359803769654 0.011359908473294187
-0.00013255382275044122 0.015259633771320013 0.014983299408660404
-0.0007201482309470062 0.017035810286237702 0.0185540465139798
-0.0011946371146526612 0.018570403632694406 0.022110864620126396
-0.0014108622120167862 0.019569944410996864 0.02573238861575125
-0.0013224843579428829 0.02027908699508839 0.029353063558931518
-0.0010167791708201568 0.021054937690086355 0.03287720310359892
-0.0006138083932142036 0.021658643223668585 0.036368807791181734
-0.00020084691410191335 0.022200493981092324 0.03979832540201735
0.0001698744379422134 0.02281904852772801 0.04312862928041035
0.0004739400232210948 0.02344315177177588 0.046378785375745836
0.0007082255455298663 0.02399378605823537 0.04956996640486902
0.0008836440760600275 0.02448230715127509 0.05269912959994148
0.001017516815515788 0.024965937348829147 0.05575094229244273
0.0011275777072549662 0.025497086769720685 0.05871136123335886
0.0012277625198140337 0.026088852309641353 0.06157687712006595
0.00132638558954348 0.02670856124888386 0.06435624458142412
0.0014271324949937316 0.027308086933560217 0.06706235911547706
0.0015306083418583354 0.027855659612832834 0.06970373340130544
0.0016355657532635378 0.028350558162757517 0.07228056066348772
0.0017398364473795213 0.0288122351484051 0.0747876286029225
0.0018410131526058282 0.029263191739620078 0.07721890804932116
0.001936923789896676 0.029719965295413923 0.07956996783069163
0.0020259353317291845 0.030191792774188788 0.08183833291148956
0.0021071205190511294 0.03068111701874317 0.08402334873395985
0.002180316672546981 0.031184411226651033 0.0861259603019644
0.0022461021518325993 0.03169320390393759 0.08814843754547247
0.0023056987632523672 0.03219535151214391 0.09009403431580736
0.0023607022647827588 0.032677589910602184 0.0919663047287493
0.0024126938092907785 0.03312896022724249 0.0937681852052194
0.0024629658139780817 0.03354298825091441 0.09550141050486705
0.0025123806343549317 0.033918510880907485 0.0971662922795883
0.0025613283706516186 0.03425952200173029 0.09876176037125443
0.0026097549007438213 0.03457435460958945 0.10028558196026137
0.0026572361369983943 0.034874450807082895 0.10173469114445825
0.002703078927872171 0.035172108459008825 0.1031057927209038
0.0027464329900004744 0.03547505867702721 0.1043968151444721
0.0027864017842759935 0.0357819713812525 0.1056081148089944
0.0028221433614242725 0.036082012591218786 0.10674259467078728
0.0028529549202113143 0.03635714614049108 0.10780508750608163
0.002878337166053322 0.036585211996523835 0.10880153107770224
0.0028980365508205295 0.03673894341104507 0.10973923148882879
0.0029120651374179955 0.036784711614788836 0.11062719954102856
0.002920699186668212 0.036688258187510196 0.11147461475034018
0.0029244586304951574 0.036423822754785146 0.11228837958828726
0.002924070395798875 0.035982555724465994 0.11307086529593909
0.0029204190990956736 0.03537782384358589 0.11381849026422275
0.0029144889643634465 0.0346463797703095 0.11452140664806329
0.002907300946956263 0.03384538805668709 0.11516429725190318
0.006212993241944028 -0.004783837966726939 0.007741948885664766
0.0072288922610571306 -0.00666147874013438 0.012527716424882361
0.007974780507892725 -0.00710100224856536 0.016849480590261392
0.008270023946844132 -0.006646105560553184 0.02085292457224252
0.008140225139500825 -0.005549306258028489 0.02460571025297872
0.007751519283975376 -0.0041820111474789035 0.02820735578633178
0.007318662739924205 -0.0029972341720827913 0.03177924589253638
0.0069707766105224795 -0.0018566309442533744 0.03528431130466126
0.006702226685381192 -0.0004746095211437565 0.03864602789225576
0.006460614097576536 0.0008578741845878992 0.041942357057149715
0.006208498480286784 0.0022102230010963317 0.04515470236758659
0.005928720355726676 0.003688569543107346 0.04825462567516003
0.00562110152420414 0.005196334330657439 0.05126800537353166
0.005297776270156929 0.0066345108001709145 0.054221370191456966
0.004977662142563614 0.007998727669809885 0.05711589141037432
0.004680078492205027 0.009333754698067298 0.05993957300965017
0.0044193472589770496 0.010681926416869094 0.06268107148564303
0.0042022226504668725 0.01204814710494794 0.06533907274082702
0.004028605706719037 0.013393343863839766 0.06792404632679154
0.003894567528214928 0.014664914428209379 0.0704500869780532
0.003794542923454683 0.015828464837111016 0.07292641052867191
0.0037223892098821663 0.01688226938141581 0.07535347938101514
0.0036720478837599236 0.017846156584055348 0.07772598049837626
0.0036379885391020494 0.01874415968694165 0.08003747419299344
0.003615480687410345 0.019595292872302997 0.08228286563009388
0.003600729157216099 0.020412015855935935 0.08445881623889195
0.0035909263662617956 0.021200557693150438 0.08656365694904777
0.003584242976167935 0.021961574687004257 0.08859721190468701
0.00357976601221264 0.022691023404244184 0.09056056454048451
0.003577378730160166 0.02338129537193074 0.09245575354062005
0.0035774796054096774 0.02402364520727985 0.09428512222334812
0.003580588564800478 0.024611508212482733 0.09605042959414511
0.0035870678637920984 0.025142586491545882 0.09775229137238682
0.0035969747054953923 0.025619597449026976 0.09938997943171649
0.0036100119296844893 0.026050057187284485 0.10096147983857691
0.0036255480079795204 0.026445415471315837 0.10246372463768354
0.0036426825552804717 0.02681979344195431 0.10389293008075384
0.0036603380175139954 0.02718771218778166 0.1052452052538292
0.003677362157174432 0.02755866544699508 0.10651800631742642
0.0036926294639041822 0.027932632610040482 0.10771133879385895
0.0037051326977571345 0.028299654450212236 0.10882787124987978
0.003714058455611533 0.02864216293513184 0.10987231102557733
0.003718842962038476 0.02893809587375643 0.1108505696672248
0.003719206248598144 0.029159957140605132 0.11177001473943975
0.003715164522496519 0.02927360967801446 0.11263979323925512
0.0037070218583473346 0.02924405989032825 0.11346928167236724
0.003695343396461056 0.029044639584048005 0.11426562575968763
0.003680913018392471 0.028665473710619095 0.11503147151250165
0.0036646790161518838 0.028118840297649935 0.11576352904322709
0.003647691596346039 0.02744039244748694 0.11645224513188251
0.0036310361855396924 0.02668623357891265 0.1170825869127125
0.005410766489344848 -0.0017076728335304059 0.009059020527593638
0.005892211109850776 -0.002067584199947976 0.013398783190845896
0.006132458642509649 -0.0015744162315332458 0.01743130292118329
0.006047255650667177 -0.0005363489247734154 0.02123915629978799
0.005720055990603616 0.0008015327128012428 0.024888013656504712
0.005325630843128663 0.0020753265106257727 0.028475382284060265
0.005016871435172548 0.003160929507134595 0.032034515470784466
0.004834968294868498 0.004292537911122919 0.035502660531660186
0.004732241848104854 0.0054829218630109205 0.038876395717874636
0.00464908530328423 0.006632928595226702 0.042182288933426
0.004547585503985086 0.007839490017678922 0.04539436735133344
0.004411660012619469 0.00911461399009978 0.04850941347527891
0.004242349868979272 0.01036618415281204 0.051552109809447584
0.00405227310746894 0.011546976077431607 0.05453511010128805
0.003859297849485217 0.012680711450466974 0.057452058144057204
0.0036804214720396232 0.013813758432919876 0.06029052962646015
0.003527506244425096 0.014972019955601643 0.06304358387910437
0.003405829147614405 0.016140235808111043 0.06571530986304322
0.003315379723667389 0.01727392788232394 0.06831762545142943
0.003253134023982613 0.018330485542794282 0.07086194812961974
0.003214621311891553 0.019292302553896357 0.0733529954742318
0.0031948391851961662 0.020168508900947013 0.07578832111307306
0.0031888698585714084 0.020980796962627023 0.0781621125907941
0.0031922930777549615 0.021750189339095994 0.08046873691865934
0.003201436081938149 0.02249171053178994 0.08270416829364234
0.0032135028026517493 0.023213828805023887 0.08486613765115858
0.003226618152360912 0.02391899067323229 0.08695398944964108
0.0032398057236901635 0.024604426175541746 0.08896846589786894
0.003252904392775423 0.025263188968075785 0.09091142826307419
0.003266372004343082 0.025885970395047236 0.09278537079205765
0.0032809500730880004 0.02646400129964156 0.09459264317330605
0.0032973286136308236 0.02699177907378034 0.0963347198262103
0.0033159342695244357 0.027468506369192562 0.09801181439959566
0.0033368336138182735 0.027898374598946517 0.09962280380771538
0.0033597203855484335 0.028290036823390086 0.10116536947003715
0.0033839603409402744 0.02865555401956035 0.10263627965750398
0.003408672097906746 0.02900863451941246 0.10403186123363889
0.0034328265552422406 0.02936078750504578 0.10534903032239284
0.0034553512046890385 0.029716365528673294 0.10658662066091533
0.003475228953835527 0.03007010564415368 0.10774604245137473
0.0034915839677176984 0.030408076360967765 0.10883102862540503
0.0035037495424018335 0.030710391820459964 0.10984690758277378
0.0035113151685979642 0.030952289306331697 0.11080031447331556
0.003514151750190315 0.03110304443521159 0.11169948187074276
0.003512415433327221 0.031128247313415902 0.11255362987827949
0.0035065316976985676 0.030997272420678013 0.113370964579349
0.0034971622838568268 0.030692089795406555 0.11415631708759928
0.003485158199815951 0.030214165199107374 0.11490929465341852
0.0034715024876191118 0.029587737731163254 0.11562340242970189
0.003457246657122113 0.028858955738274423 0.11628627500421893

CELLS 100 350
4 0 51 52 1
4 1 52 53 2
4 2 53 54 3
4 3 54 55 4
4 4 55 56 5
4 5 56 57 6
4 6 57 58 7
4 7 58 59 8
4 8 59 60 9
4 9 60 61 10
4 10 61 62 11
4 11 62 63 12
4 12 63 64 13
4 13 64 65 14
4 14 65 66 15
4 15 66 67 16
4 16 67 68 17
4 17 68 69 18
4 18 69 70 19
4 19 70 71 20
4 20 71 72 21
4 21 72 73 22
4 22 73 74 23
4 23 74 75 24
4 24 75 76 25
4 25 76 77 26
4 26 77 78 27
4 27 78 79 28
4 28 79 80 29
4 29 80 81 30
4 30 81 82 31
4 31 82 83 32
4 32 83 84 33
4 33 84 85 34
4 34 85 86 35
4 35 86 87 36
4 36 87 88 37
4 37 88 89 38
4 38 89 90 39
4 39 90 91 40
4 40 91 92 41
4 41 92 93 42
4 42 93 94 43
4 43 94 95 44
4 44 95 96 45
4 45 96 97 46
4 46 97 98 47
4 47 98 99 48
4 48 99 100 49
4 49 100 101 50
1 102
1 103
1 104
1 105
1 106
1 107
1 108
1 109
1 110
1 111
1 112
1 113
1 114
1 115
1 116
1 117
1 118
1 119
1 120
1 121
1 122
1 123
1 124
1 125
1 126
1 127
1 128
1 129
1 130
1 131
1 132
1 133
1 134
1 135
1 136
1 137
1 138
1 139
1 140
1 141
1 142
1 143
1 144
1 145
1 146
1 147
1 148
1 149
1 150
1 151

CELL_TYPES 100
9
9
9
9
9
9
9
9
9
9
9
9
9
9
9
9
9
9
9
9
9
9
9
9
9
9
9
9
9
9
9
9
9
9
9
9
9
9
9
9
9
9
9
9
9
9
9
9
9
9
1
1
1
1
1
1
1
1
1
1
1
1
1
1
1
1
1
1
1
1
1
1
1
1
1
1
1
1
1
1
1
1
1
1
1
1
1
1
1
1
1
1
1
1
1
1
1
1
1
1

CELL_DATA 100

VECTORS S float
4.615690619067599e-19 4.11943732161435e-18 2.2383456835508218e-17
-5.901421126394e-20 -5.8394386756192e-19 -3.2594882967250698e-18
1.21927625642985e-18 1.80266731605086e-18 9.0768842843389e-18
4.59417833283262e-18 -3.78355626831424e-18 -2.59615085331298e-17
4.712018233932e-20 2.0437011844398798e-18 1.1856182418110029e-17
4.96015393791e-21 3.5857507226113e-19 2.0906029463109e-18
-8.478964937342e-20 -7.215586953118259e-18 -4.218636383299556e-17
-6.507943075000999e-20 -6.08045053228218e-18 -3.562885114900295e-17
-8.654715473907e-20 -8.703798364359279e-18 -5.1108750336345715e-17
2.3425530942239998e-20 2.50820283750756e-18 1.475953766988526e-17
2.682505568266e-20 3.09118997627919e-18 1.82352602287681e-17
6.086261555238999e-20 8.32355771345003e-18 4.9246591656080526e-17
1.1879038860069999e-20 1.88248187587335e-18 1.117388179526021e-17
1.800386900578e-20 3.03458790090997e-18 1.807470339114319e-17
-3.6893616330739997e-20 -6.34192661210508e-18 -3.7911254848362296e-17
-4.955819138111e-20 -8.634659941632749e-18 -5.1807977747563656e-17
2.387444508581e-20 4.53498387953931e-18 2.7114969248960387e-17
1.210513037626e-20 2.25048996819162e-18 1.349717665066706e-17
4.379525989571e-20 8.123858910363509e-18 4.885560042129276e-17
-1.602650541621e-20 -2.8874671103196197e-18 -1.740467061000085e-17
9.68881114485e-21 1.71874721085346e-18 1.037913518356705e-17
3.585549749302e-20 6.0992552655780595e-18 3.6894516827809e-17
-1.6602459615359998e-20 -2.8216200683374698e-18 -1.707521932953023e-17
-1.9939857105629998e-20 -3.37236193523005e-18 -2.0416884354758e-17
-2.2125844173899998e-20 -3.7077162265502e-18 -2.245662512716832e-17
-4.7423319643269996e-20 -7.84207771526064e-18 -4.7515800748358307e-17
2.0336189389699998e-20 3.3525600516408398e-18 2.032031500478228e-17
5.827555433735e-20 9.7094734689139e-18 5.886585718780975e-17
1.817885321258e-20 3.2622705518338797e-18 1.974327152877155e-17
-2.190995372167e-20 -4.13992600403873e-18 -2.5025638291979608e-17
-1.370691144338e-20 -2.7016388576731198e-18 -1.630761062977768e-17
-6.57746330163e-21 -1.37982941488026e-18 -8.31452955588358e-18
1.0685954058369999e-20 2.4300126691376497e-18 1.461345853948813e-17
2.19400983799e-21 5.3013195319349e-19 3.1809172656354098e-18
-2.15525826478e-20 -5.57409320489099e-18 -3.336402619546486e-17
2.015560359793e-20 5.6322582535708694e-18 3.362467142228254e-17
1.30028272648e-21 3.8962151379808996e-19 2.3198062536200097e-18
-7.40385023556e-21 -2.38204393974287e-18 -1.414655399127118e-17
-4.85308999938e-21 -1.71528399433775e-18 -1.015923068675684e-17
1.389747977823e-20 5.32855362603631e-18 3.147843218148156e-17
-2.6911102318699997e-21 -1.15384001880708e-18 -6.7999630521329795e-18
-1.388325440276e-20 -6.694041597617589e-18 -3.93642607329619e-17
1.5658818363799998e-21 6.0106165862907e-19 3.5277171000287e-18
-5.3678536086e-22 -1.4983197354709e-19 -8.7798872846874e-19
4.128301571068e-20 7.930731209962549e-18 4.640691041191831e-17
-3.6858590502489996e-20 -5.4363438850345396e-18 -3.177417383097464e-17
4.088427756916e-20 4.78096641496213e-18 2.7918202153188017e-17
1.6751169621122e-19 1.474758796700677e-17 8.605912378467779e-17
-4.402418838219e-20 -2.7629977356979597e-18 -1.611577911444952e-17
-2.4271400514798e-19 -7.70977224973172e-18 -4.49645280022153e-17
4.615690619067599e-19 4.11943732161435e-18 2.2383456835508218e-17
-5.901421126394e-20 -5.8394386756192e-19 -3.2594882967250698e-18
1.21927625642985e-18 1.80266731605086e-18 9.0768842843389e-18
4.59417833283262e-18 -3.78355626831424e-18 -2.59615085331298e-17
4.712018233932e-20 2.0437011844398798e-18 1.1856182418110029e-17
4.96015393791e-21 3.5857507226113e-19 2.0906029463109e-18
-8.478964937342e-20 -7.215586953118259e-18 -4.218636383299556e-17
-6.507943075000999e-20 -6.08045053228218e-18 -3.562885114900295e-17
-8.654715473907e-20 -8.703798364359279e-18 -5.1108750336345715e-17
2.3425530942239998e-20 2.50820283750756e-18 1.475953766988526e-17
2.682505568266e-20 3.09118997627919e-18 1.82352602287681e-17
6.086261555238999e-20 8.32355771345003e-18 4.9246591656080526e-17
1.1879038860069999e-20 1.88248187587335e-18 1.117388179526021e-17
1.800386900578e-20 3.03458790090997e-18 1.807470339114319e-17
-3.6893616330739997e-20 -6.34192661210508e-18 -3.7911254848362296e-17
-4.955819138111e-20 -8.634659941632749e-18 -5.1807977747563656e-17
2.387444508581e-20 4.53498387953931e-18 2.7114969248960387e-17
1.210513037626e-20 2.25048996819162e-18 1.349717665066706e-17
4.379525989571e-20 8.123858910363509e-18 4.885560042129276e-17
-1.602650541621e-20 -2.8874671103196197e-18 -1.740467061000085e-17
9.68881114485e-21 1.71874721085346e-18 1.037913518356705e-17
3.585549749302e-20 6.0992552655780595e-18 3.6894516827809e-17
-1.6602459615359998e-20 -2.8216200683374698e-18 -1.707521932953023e-17
-1.9939857105629998e-20 -3.37236193523005e-18 -2.0416884354758e-17
-2.2125844173899998e-20 -3.7077162265502e-18 -2.245662512716832e-17
-4.7423319643269996e-20 -7.84207771526064e-18 -4.7515800748358307e-17
2.0336189389699998e-20 3.3525600516408398e-18 2.032031500478228e-17
5.827555433735e-20 9.7094734689139e-18 5.886585718780975e-17
1.817885321258e-20 3.2622705518338797e-18 1.974327152877155e-17
-2.190995372167e-20 -4.13992600403873e-18 -2.5025638291979608e-17
-1.370691144338e-20 -2.7016388576731198e-18 -1.630761062977768e-17
-6.57746330163e-21 -1.37982941488026e-18 -8.31452955588358e-18
1.0685954058369999e-20 2.4300126691376497e-18 1.461345853948813e-17
2.19400983799e-21 5.3013195319349e-19 3.1809172656354098e-18
-2.15525826478e-20 -5.57409320489099e-18 -3.336402619546486e-17
2.015560359793e-20 5.6322582535708694e-18 3.362467142228254e-17
1.30028272648e-21 3.8962151379808996e-19 2.3198062536200097e-18
-7.40385023556e-21 -2.38204393974287e-18 -1.414655399127118e-17
-4.85308999938e-21 -1.71528399433775e-18 -1.015923068675684e-17
1.389747977823e-20 5.32855362603631e-18 3.147843218148156e-17
-2.6911102318699997e-21 -1.15384001880708e-18 -6.7999630521329795e-18
-1.388325440276e-20 -6.694041597617589e-18 -3.93642607329619e-17
1.5658818363799998e-21 6.0106165862907e-19 3.5277171000287e-18
-5.3678536086e-22 -1.4983197354709e-19 -8.7798872846874e-19
4.128301571068e-20 7.930731209962549e-18 4.640691041191831e-17
-3.6858590502489996e-20 -5.4363438850345396e-18 -3.177417383097464e-17
4.088427756916e-20 4.78096641496213e-18 2.7918202153188017e-17
1.6751169621122e-19 1.474758796700677e-17 8.605912378467779e-17
-4.402418838219e-20 -2.7629977356979597e-18 -1.611577911444952e-17
-2.4271400514798e-19 -7.70977224973172e-18 -4.49645280022153e-17

SCALARS Gamma float
LOOKUP_TABLE default
-5.381445792068099e-5
0.000733801423274673
0.0002725015481612398
-0.00034110792460636207
0.034242259229268504
0.11685565502459476
0.20441856580439943
0.278913304246548
0.335556037774907
0.3655355789382117
0.37820184637739407
0.4070947484008763
0.42420754397812815
0.40586075543251565
0.40215619974657124
0.39039176475749165
0.379797585874041
0.3680466428902104
0.35622630305934594
0.3427101521090035
0.3236177070862756
0.30951671998749586
0.29752227981673884
0.28363974955742177
0.2686891067610814
0.2553339190031939
0.24557256826501722
0.23932026227223693
0.23651922134054104
0.2317109842315409
0.2227336951096422
0.22104153194246512
0.21416228486335845
0.20878341564726455
0.20450597784516644
0.20088332574144133
0.19779788631064016
0.19529096713860505
0.19363494478692625
0.19039575315611043
0.1921298750267178
0.20041531642709617
0.1713708205992101
0.12996450441655819
0.1040248453390299
0.08276688414508378
0.06646870022582847
0.05106608960439612
0.03692785243881365
0.01935812791890375
-5.381445792068099e-5
0.000733801423274673
0.0002725015481612398
-0.00034110792460636207
0.034242259229268504
0.11685565502459476
0.20441856580439943
0.278913304246548
0.335556037774907
0.3655355789382117
0.37820184637739407
0.4070947484008763
0.42420754397812815
0.40586075543251565
0.40215619974657124
0.39039176475749165
0.379797585874041
0.3680466428902104
0.35622630305934594
0.3427101521090035
0.3236177070862756
0.30951671998749586
0.29752227981673884
0.28363974955742177
0.2686891067610814
0.2553339190031939
0.24557256826501722
0.23932026227223693
0.23651922134054104
0.2317109842315409
0.2227336951096422
0.22104153194246512
0.21416228486335845
0.20878341564726455
0.20450597784516644
0.20088332574144133
0.19779788631064016
0.19529096713860505
0.19363494478692625
0.19039575315611043
0.1921298750267178
0.20041531642709617
0.1713708205992101
0.12996450441655819
0.1040248453390299
0.08276688414508378
0.06646870022582847
0.05106608960439612
0.03692785243881365
0.01935812791890375

VECTORS Ftot float
0.009764699346367638 -0.02610834826898425 0.004603606221555081
0.010329328397061688 -0.06619983305052575 0.011672816685203681
0.02269235288626157 -0.13685789022388706 0.0241317385693086
0.036161257483538316 -0.20919166599496514 0.03688613485426594
-0.4534154797828535 -0.45589734616111427 0.08038700256159134
-1.9084436943903633 -0.9414738848312852 0.16600724752816995
-3.8347265114264064 -1.458002718185521 0.2570852171623884
-5.871078334534031 -1.892667442643065 0.3337283356464641
-7.807990021137933 -2.1936443656421276 0.3867986877418131
-9.295318286592869 -2.309050193668477 0.4071478489538596
-10.41950468738051 -2.250824525556965 0.3968810926960237
-12.07724008072574 -2.0421236819812556 0.36008150307700904
-13.45453060716253 -1.820871064650416 0.32106869708921665
-13.672580444529187 -1.6144775185308815 0.28467594626424575
-14.316992451662957 -1.5406296378659259 0.27165457243487506
-14.626347695897485 -1.44830769747843 0.255375723433201
-14.91539416841431 -1.446860952816668 0.2551206233151364
-15.10293445879814 -1.412562939311532 0.24907295814947758
-15.230776598402015 -1.3593512146198812 0.2396902953963087
-15.223795110695892 -1.3446664999141962 0.23710098398969007
-14.900172464092742 -1.2962135905012893 0.22855742876637142
-14.735964014477913 -1.3006123962752767 0.22933305690722158
-14.61842899473401 -1.2827672663600123 0.2261864790289127
-14.355189814912105 -1.2571738625953564 0.22167367141703828
-13.982433393406481 -1.2277068668467535 0.21647784502613793
-13.639972930721576 -1.206274870314683 0.21269880578708364
-13.446562282031008 -1.1865492730903162 0.20922065078583973
-13.413334193014292 -1.1663829413990465 0.20566478240675273
-13.552057086332978 -1.1249307632612529 0.19835564499192612
-13.554192886404017 -1.0887288570985414 0.19197227218236404
-13.284620336771123 -1.0475067025643199 0.18470369413504698
-13.427440116611574 -1.024024365245155 0.1805631244955809
-13.235994864163407 -0.9639135642001022 0.1699639684393395
-13.113603352126383 -0.9356671178239283 0.16498335783408513
-13.04131753431755 -0.9099640882946518 0.16045122024212732
-12.994168493548978 -0.8827915665709711 0.1556599715283555
-12.966489883492807 -0.8680519674616707 0.15306098252055936
-12.963325067062051 -0.8540897482377741 0.15059906656082
-13.004789441590017 -0.8297575155356014 0.14630863743455014
-12.927470418286736 -0.8094827668255933 0.14273365220989154
-13.178288366256988 -0.7850073622482726 0.13841797801915443
-13.876229755866845 -0.7801389188019558 0.1375595400855155
-11.968666552776643 -0.8937279962044933 0.15758835914536506
-9.15113121725887 -0.9861608120461444 0.17388675848110502
-7.381860751793725 -1.2090234719968251 0.21318345842286598
-5.916608563846157 -1.311350107968627 0.23122640518982804
-4.78466781835941 -1.3798643974609364 0.24330732299139265
-3.7015562239309823 -1.452261578224861 0.2560728992873005
-2.696760834292969 -1.5095271600605369 0.26617036643089875
-1.4321308902746308 -1.5894766835529737 0.2802676245174006
0.009764699346367638 -0.02610834826898425 0.004603606221555081
0.010329328397061688 -0.06619983305052575 0.011672816685203681
0.02269235288626157 -0.13685789022388706 0.0241317385693086
0.036161257483538316 -0.20919166599496514 0.03688613485426594
-0.4534154797828535 -0.45589734616111427 0.08038700256159134
-1.9084436943903633 -0.9414738848312852 0.16600724752816995
-3.8347265114264064 -1.458002718185521 0.2570852171623884
-5.871078334534031 -1.892667442643065 0.3337283356464641
-7.807990021137933 -2.1936443656421276 0.3867986877418131
-9.295318286592869 -2.309050193668477 0.4071478489538596
-10.41950468738051 -2.250824525556965 0.3968810926960237
-12.07724008072574 -2.0421236819812556 0.36008150307700904
-13.45453060716253 -1.820871064650416 0.32106869708921665
-13.672580444529187 -1.6144775185308815 0.28467594626424575
-14.316992451662957 -1.5406296378659259 0.27165457243487506
-14.626347695897485 -1.44830769747843 0.255375723433201
-14.91539416841431 -1.446860952816668 0.2551206233151364
-15.10293445879814 -1.412562939311532 0.24907295814947758
-15.230776598402015 -1.3593512146198812 0.2396902953963087
-15.223795110695892 -1.3446664999141962 0.23710098398969007
-14.900172464092742 -1.2962135905012893 0.22855742876637142
-14.735964014477913 -1.3006123962752767 0.22933305690722158
-14.61842899473401 -1.2827672663600123 0.2261864790289127
-14.355189814912105 -1.2571738625953564 0.22167367141703828
-13.982433393406481 -1.2277068668467535 0.21647784502613793
-13.639972930721576 -1.206274870314683 0.21269880578708364
-13.446562282031008 -1.1865492730903162 0.20922065078583973
-13.413334193014292 -1.1663829413990465 0.20566478240675273
-13.552057086332978 -1.1249307632612529 0.19835564499192612
-13.554192886404017 -1.0887288570985414 0.19197227218236404
-13.284620336771123 -1.0475067025643199 0.18470369413504698
-13.427440116611574 -1.024024365245155 0.1805631244955809
-13.235994864163407 -0.9639135642001022 0.1699639684393395
-13.113603352126383 -0.9356671178239283 0.16498335783408513
-13.04131753431755 -0.9099640882946518 0.16045122024212732
-12.994168493548978 -0.8827915665709711 0.1556599715283555
-12.966489883492807 -0.8680519674616707 0.15306098252055936
-12.963325067062051 -0.8540897482377741 0.15059906656082
-13.004789441590017 -0.8297575155356014 0.14630863743455014
-12.927470418286736 -0.8094827668255933 0.14273365220989154
-13.178288366256988 -0.7850073622482726 0.13841797801915443
-13.876229755866845 -0.7801389188019558 0.1375595400855155
-11.968666552776643 -0.8937279962044933 0.15758835914536506
-9.15113121725887 -0.9861608120461444 0.17388675848110502
-7.381860751793725 -1.2090234719968251 0.21318345842286598
-5.916608563846157 -1.311350107968627 0.23122640518982804
-4.78466781835941 -1.3798643974609364 0.24330732299139265
-3.7015562239309823 -1.452261578224861 0.2560728992873005
-2.696760834292969 -1.5095271600605369 0.26617036643089875
-1.4321308902746308 -1.5894766835529737 0.2802676245174006

VECTORS D float
0.009493842609678914 -0.02620244303417226 0.004626508697303838
0.01585327362462851 -0.06490856035089945 0.011341469569752434
0.025410592852371898 -0.13642974679868286 0.023681574671526547
0.03193898155003867 -0.20994407856746783 0.03624861052540221
0.051017013083860245 -0.3925625980009529 0.06746494675390903
0.08260972562605311 -0.720481424850362 0.1233792014298108
0.11016547411449674 -1.061547655399482 0.1813464784681662
0.12810113451232158 -1.3351745832801438 0.22762805970828665
0.13527352626446448 -1.499437317151031 0.25512446389040383
0.1309848653956567 -1.524143008032007 0.2588015636349936
0.1162256382569029 -1.4079103148112877 0.23849401866860787
0.0878119901101829 -1.102947296031953 0.18630936065781106
0.06248063374638121 -0.8127022324341806 0.13685083135670228
0.04650076302747875 -0.6267772213197292 0.10518420897950692
0.03895275991854503 -0.5452883989857072 0.09117983338843491
0.03241121721145427 -0.47275578131967455 0.07876159895128727
0.031479299951204805 -0.46530351778126194 0.0777943866373298
0.029718971638727328 -0.4567366237833022 0.07612862041432296
0.027072043184465377 -0.43276375248626825 0.07193701457446443
0.02729809694373729 -0.45351299662029687 0.07521351010187358
0.02642647677898061 -0.45540949151216914 0.07538949424503782
0.027896880827419562 -0.49820265034925354 0.08233377594031646
0.027695948344928754 -0.5084262960456694 0.08398873195431435
0.027376344445563944 -0.5145904477168449 0.08497081766115153
0.02705385316933766 -0.5189277333797799 0.08565125780153837
0.02699236556540317 -0.5269496716678141 0.0869416098351804
0.026592486146813053 -0.5275209471653407 0.08700676459097927
0.025767255539134212 -0.5191506395080162 0.08560442335011154
0.023836017122213227 -0.5134538366850645 0.08481836544906024
0.022354733489361067 -0.5010759972072725 0.08287212239963053
0.02120722099510617 -0.49977104263697625 0.08277792583315591
0.020093256330409242 -0.5043357074527316 0.0836806312113303
0.018063854811397145 -0.49050754136723196 0.08155129787291598
0.017049557925638708 -0.5101998809957896 0.08501819756683886
0.015856737209108046 -0.5344715713582793 0.08928336715193208
0.01435263055366156 -0.5594191280071168 0.09369619335235153
0.012844904866412635 -0.5981740561362608 0.10045872533319182
0.01098220010425614 -0.6380391315785213 0.10742940910332803
0.008661496140352587 -0.6662994915989149 0.11249383477869786
0.006228744389299186 -0.6982632210607415 0.11819668886974079
0.0036428621050653407 -0.7211426437843586 0.1223644057980947
0.0011057710365020388 -0.7613593460957316 0.12947164983925408
-0.001681782129532688 -0.9159600725004134 0.15606441737709514
-0.005074119786356203 -1.0308340865147725 0.17591869267469248
-0.009515206292620397 -1.264034083156727 0.21602617543751962
-0.013411986271204083 -1.3686894774356568 0.23418896924471183
-0.016871050817708996 -1.4354654621447425 0.24584684527376932
-0.0201349816025889 -1.5014163100919355 0.25733055345194955
-0.022918798030453512 -1.5491715923009373 0.26566302211094284
-0.025244034192873212 -1.612142751524188 0.276559792384337
0.009493842609678914 -0.02620244303417226 0.004626508697303838
0.01585327362462851 -0.06490856035089945 0.011341469569752434
0.025410592852371898 -0.13642974679868286 0.023681574671526547
0.03193898155003867 -0.20994407856746783 0.03624861052540221
0.051017013083860245 -0.3925625980009529 0.06746494675390903
0.08260972562605311 -0.720481424850362 0.1233792014298108
0.11016547411449674 -1.061547655399482 0.1813464784681662
0.12810113451232158 -1.3351745832801438 0.22762805970828665
0.13527352626446448 -1.499437317151031 0.25512446389040383
0.1309848653956567 -1.524143008032007 0.2588015636349936
0.1162256382569029 -1.4079103148112877 0.23849401866860787
0.0878119901101829 -1.102947296031953 0.18630936065781106
0.06248063374638121 -0.8127022324341806 0.13685083135670228
0.04650076302747875 -0.6267772213197292 0.10518420897950692
0.03895275991854503 -0.5452883989857072 0.09117983338843491
0.03241121721145427 -0.47275578131967455 0.07876159895128727
0.031479299951204805 -0.46530351778126194 0.0777943866373298
0.029718971638727328 -0.4567366237833022 0.07612862041432296
0.027072043184465377 -0.43276375248626825 0.07193701457446443
0.02729809694373729 -0.45351299662029687 0.07521351010187358
0.02642647677898061 -0.45540949151216914 0.07538949424503782
0.027896880827419562 -0.49820265034925354 0.08233377594031646
0.027695948344928754 -0.5084262960456694 0.08398873195431435
0.027376344445563944 -0.5145904477168449 0.08497081766115153
0.02705385316933766 -0.5189277333797799 0.08565125780153837
0.02699236556540317 -0.5269496716678141 0.0869416098351804
0.026592486146813053 -0.5275209471653407 0.08700676459097927