# vtk DataFile Version 4.0
[MyVLM domain - lattices] 
ASCII
DATASET UNSTRUCTURED_GRID
POINTS 152 float
0.0018916144324157278 0.003137534184564179 -0.009624235132160836
0.0010688609733395774 0.006679344945701477 -0.011988171444229558
0.00045780959861706216 0.010149982460518335 -0.014325501923799352
-0.00013255382275044122 0.013596318715432196 -0.01650744684658331
-0.0007201482309470062 0.01699867406656927 -0.01858807558974757
-0.0011946371146526612 0.02040820878306323 -0.020426826469074157
-0.0014108622120167862 0.023928836067577272 -0.02173820030666273
-0.0013224843579428829 0.027473927400856645 -0.022760207003046505
-0.0010167791708201568 0.03091703668700599 -0.02384025435147617
-0.0006138083932142036 0.034342738360428095 -0.02474597600316693
-0.00020084691410191335 0.03771198021613321 -0.025584667009508018
0.0001698744379422134 0.04097570070188076 -0.026491122877443783
0.0004739400232210948 0.04415909479023837 -0.02739612098876094
0.0007082255455298663 0.04729014147188319 -0.02822278969835489
0.0008836440760600275 0.05036481983756647 -0.028982176363592217
0.001017516815515788 0.05336286831232232 -0.029729949204174322
0.0011275777072549662 0.05626572924310561 -0.030517094952800763
0.0012277625198140337 0.059068765211576675 -0.0313563548116443
0.00132638558954348 0.061783545147743396 -0.03221594340674111
0.0014271324949937316 0.06442710999265172 -0.033049041137361145
0.0015306083418583354 0.06701070894829952 -0.033824741075028364
0.0016355657532635378 0.0695345973540804 -0.03454234168052455
0.0017398364473795213 0.07199188734250754 -0.035220767214237926
0.0018410131526058282 0.07437461157993505 -0.03588190774545381
0.001936923789896676 0.0766769144305104 -0.03654185150145366
0.0020259353317291845 0.07889552522297641 -0.03720958457766298
0.0021071205190511294 0.08102957898258933 -0.03788748347265859
0.002180316672546981 0.08308032449827106 -0.038572117167075946
0.0022461021518325993 0.08505076140157156 -0.0392552442409649
0.0023056987632523672 0.08694518954104144 -0.039925050957525486
0.0023607022647827588 0.0887683055540092 -0.0405686334117503
0.0024126938092907785 0.09052398981606274 -0.04117533035933262
0.0024629658139780817 0.09221453475024874 -0.04173884341971583
0.0025123806343549317 0.09384035219344006 -0.04225804108039127
0.0025613283706516186 0.09540002796981192 -0.04273680875750463
0.0026097549007438213 0.09689061148783924 -0.04318325313464514
0.0026572361369983943 0.09830805126710397 -0.04360850556277674
0.002703078927872171 0.09964799281436613 -0.04402452991374939
0.0027464329900004744 0.1009076986565755 -0.04443884733295503
0.0027864017842759935 0.1020876397554775 -0.0448501638636327
0.0028221433614242725 0.10319165226437793 -0.04524793976119697
0.0028529549202113143 0.104226122524817 -0.045614628696473335
0.002878337166053322 0.10519889707873514 -0.04592867247265965
0.0028980365508205295 0.10611963068108164 -0.04616354486854237
0.0029120651374179955 0.10700023078496643 -0.04628653042557876
0.002920699186668212 0.10785282779366 -0.04626430113469421
0.0029244586304951574 0.10868654307726433 -0.04607179623749912
0.002924070395798875 0.10950451014633716 -0.045700406484492306
0.0029204190990956736 0.11030199603214368 -0.04516313560039995
0.0029144889643634465 0.11106598715841225 -0.0444957380921745
0.002907300946956263 0.11177624239714601 -0.04375382600193157
0.006212993241944028 0.008129427383971209 0.0040908787135389224
0.0072288922610571306 0.013060630809059053 0.005544267372430184
0.007974780507892725 0.017404256354844962 0.0056054517954019925
0.008270023946844132 0.021352819165084774 0.004803362992826555
0.008140225139500825 0.0249957320054522 0.0033836605194033733
0.007751519283975376 0.028464504569269192 0.0017076642879739164
0.007318662739924205 0.03191954243795565 0.00021608501144384552
0.0069707766105224795 0.03531185989647742 -0.0012256644561190384
0.006702226685381192 0.038540333033901884 -0.00289541977656899
0.006460614097576536 0.04170798506406228 -0.004510126996219627
0.006208498480286784 0.04479024146520271 -0.006137304058689077
0.005928720355726676 0.04774952223779103 -0.007880201164115076
0.00562110152420414 0.0506200247566985 -0.00964486179723422
0.005297776270156929 0.05343680579144377 -0.011334968275394954
0.004977662142563614 0.056201413148701064 -0.012946268034710232
0.004680078492205027 0.05889799451476294 -0.014522314949137246
0.0044193472589770496 0.06151155985387012 -0.016104293803441583
0.0042022226504668725 0.06404037263297892 -0.017696975682948774
0.004028605706719037 0.06649826799136105 -0.019262348854914842
0.003894567528214928 0.06890387161831847 -0.02074923965856089
0.003794542923454683 0.07126936191009244 -0.022124188225208893
0.0037223892098821663 0.07359534991493066 -0.023385515713596008
0.0036720478837599236 0.07587481464419157 -0.024552512131477272
0.0036379885391020494 0.07809924628001998 -0.02564855801125344
0.003615480687410345 0.08026191217985272 -0.02669215113634009
0.003600729157216099 0.08235840054138929 -0.027695412833936922
0.0035909263662617956 0.08438650574766418 -0.028664402986852685
0.003584242976167935 0.08634599541140729 -0.029599760073864504
0.00357976601221264 0.08823830125292587 -0.03049755047575726
0.003577378730160166 0.0900661173207011 -0.03135037235516198
0.0035774796054096774 0.09183254022628622 -0.032149717841759344
0.003580588564800478 0.09353989443272417 -0.03288920052582648
0.0035870678637920984 0.09518899359122467 -0.033566584919037384
0.0035969747054953923 0.09677887550875902 -0.03418451462501157
0.0036100119296844893 0.09830687884391164 -0.034750301619193846
0.0036255480079795204 0.09976894940312138 -0.035275084706847475
0.0036426825552804717 0.10116008709789256 -0.035772601518209664
0.0036603380175139954 0.10247515022410796 -0.036256978769240035
0.003677362157174432 0.10371077718855766 -0.03673745236137613
0.0036926294639041822 0.104866975288782 -0.03721400224479075
0.0037051326977571345 0.10594727094063253 -0.0376769396715601
0.003714058455611533 0.10695788472625803 -0.03810917373269457
0.003718842962038476 0.10790662854336035 -0.03848924141565519
0.003719206248598144 0.10880323836598836 -0.038790393351586364
0.003715164522496519 0.10965980162470557 -0.03897941959795557
0.0037070218583473346 0.11048870903759413 -0.03902227693662131
0.003695343396461056 0.11129940342015222 -0.0388930214452262
0.003680913018392471 0.11209538138198495 -0.038582046267835644
0.0036646790161518838 0.1128722954539098 -0.038101295977860355
0.003647691596346039 0.11361752139621532 -0.037485455388845255
0.0036310361855396924 0.11431119381260418 -0.03678910422854578
0.005410766489344848 0.009173381713669555 0.000911628960189616
0.005892211109850776 0.013527998612241483 0.0008919355169334539
0.006132458642509649 0.01750219096696747 4.91869492878728e-5
0.006047255650667177 0.02120508078670155 -0.0013168064874551349
0.005720055990603616 0.024723449071724586 -0.0029676159545862332
0.005325630843128663 0.028186148234039383 -0.004549222359685449
0.005016871435172548 0.03163712130896664 -0.005940893205466853
0.004834968294868498 0.03499344285987507 -0.007370464256573345
0.004732241848104854 0.03825059116766582 -0.008850358834126118
0.00464908530328423 0.04144367477054454 -0.010284117022175134
0.004547585503985086 0.0445383715033744 -0.011766038194420531
0.004411660012619469 0.04753042955944847 -0.013307804093781577
0.004242349868979272 0.05045246598831855 -0.01481980011312542
0.00405227310746894 0.053321202266235525 -0.016256084374032833
0.003859297849485217 0.05612823889253509 -0.017639734314913624
0.0036804214720396232 0.058857157582665895 -0.019015858801838946
0.003527506244425096 0.06149878648940367 -0.020409657277952017
0.003405829147614405 0.06405852902904251 -0.021806283978997035
0.003315379723667389 0.06655213424617921 -0.023162468760566185
0.003253134023982613 0.068994689940773 -0.024436758232962357
0.003214621311891553 0.07139243022218116 -0.025612024321495955
0.0031948391851961662 0.07374212229674434 -0.026697149053747794
0.0031888698585714084 0.07603608521188467 -0.027713235673485485
0.0031922930777549615 0.07826687517375795 -0.028680735836211016
0.003201436081938149 0.08042917222715161 -0.02961426599874346
0.0032135028026517493 0.08251997788409078 -0.0305220644390863
0.003226618152360912 0.08453842586975936 -0.031406511227735766
0.0032398057236901635 0.08648549698660526 -0.03226491163211327
0.003252904392775423 0.08836365083293675 -0.033090507961406015
0.003266372004343082 0.09017618346700158 -0.03387424437000497
0.0032809500730880004 0.0919261999183879 -0.03460758985923005
0.0032973286136308236 0.09361564857976976 -0.035285191264205006
0.0033159342695244357 0.09524481178045499 -0.03590627289153175
0.0033368336138182735 0.096812205402658 -0.03647491232131402
0.0033597203855484335 0.09831476552484378 -0.036999527608784215
0.0033839603409402744 0.09974822153224813 -0.037491852171574164
0.003408672097906746 0.10110771950593396 -0.03796522204235941
0.0034328265552422406 0.10238918421361731 -0.038430833829819114
0.0034553512046890385 0.103591074480509 -0.03889292187688605
0.003475228953835527 0.10471525383851238 -0.03934636617173528
0.0034915839677176984 0.10576665522373332 -0.03977761358380429
0.0035037495424018335 0.1067523199265509 -0.04016731832677279
0.0035113151685979642 0.10768101606098288 -0.04049139020536584
0.003514151750190315 0.10856362267976624 -0.04071993926784337
0.003512415433327221 0.1094123238206907 -0.04081949014550045
0.0035065316976985676 0.11023796353052043 -0.04076024906471699
0.0034971622838568268 0.11104692595375164 -0.04052467573264712
0.003485158199815951 0.11183869208577064 -0.04011419610274754
0.0034715024876191118 0.11260467921761641 -0.03955239097408641
0.003457246657122113 0.11332854689775211 -0.03888415536828489

CELLS 100 350
4 0 51 52 1
4 1 52 53 2
4 2 53 54 3
4 3 54 55 4
4 4 55 56 5
4 5 56 57 6
4 6 57 58 7
4 7 58 59 8
4 8 59 60 9
4 9 60 61 10
4 10 61 62 11
4 11 62 63 12
4 12 63 64 13
4 13 64 65 14
4 14 65 66 15
4 15 66 67 16
4 16 67 68 17
4 17 68 69 18
4 18 69 70 19
4 19 70 71 20
4 20 71 72 21
4 21 72 73 22
4 22 73 74 23
4 23 74 75 24
4 24 75 76 25
4 25 76 77 26
4 26 77 78 27
4 27 78 79 28
4 28 79 80 29
4 29 80 81 30
4 30 81 82 31
4 31 82 83 32
4 32 83 84 33
4 33 84 85 34
4 34 85 86 35
4 35 86 87 36
4 36 87 88 37
4 37 88 89 38
4 38 89 90 39
4 39 90 91 40
4 40 91 92 41
4 41 92 93 42
4 42 93 94 43
4 43 94 95 44
4 44 95 96 45
4 45 96 97 46
4 46 97 98 47
4 47 98 99 48
4 48 99 100 49
4 49 100 101 50
1 102
1 103
1 104
1 105
1 106
1 107
1 108
1 109
1 110
1 111
1 112
1 113
1 114
1 115
1 116
1 117
1 118
1 119
1 120
1 121
1 122
1 123
1 124
1 125
1 126
1 127
1 128
1 129
1 130
1 131
1 132
1 133
1 134
1 135
1 136
1 137
1 138
1 139
1 140
1 141
1 142
1 143
1 144
1 145
1 146
1 147
1 148
1 149
1 150
1 151

CELL_TYPES 100
9
9
9
9
9
9
9
9
9
9
9
9
9
9
9
9
9
9
9
9
9
9
9
9
9
9
9
9
9
9
9
9
9
9
9
9
9
9
9
9
9
9
9
9
9
9
9
9
9
9
1
1
1
1
1
1
1
1
1
1
1
1
1
1
1
1
1
1
1
1
1
1
1
1
1
1
1
1
1
1
1
1
1
1
1
1
1
1
1
1
1
1
1
1
1
1
1
1
1
1

CELL_DATA 100

VECTORS S float
5.02270571644754e-17 2.4277160522041267e-17 -4.3633226211582497e-17
4.03656752e-23 -2.4444702911519997e-20 6.93990514392e-21
-1.45166104025e-20 -4.4516320460359e-19 1.3053433779231e-19
1.0598378647482e-19 -7.803421940081239e-18 2.0941489509570497e-18
2.81349707936e-21 2.5028503801778597e-18 -6.6653305431327e-19
-3.764888881158e-20 -1.072889041019712e-17 2.78613315132686e-18
1.2033460574133e-19 2.328385286092516e-17 -5.8928101740401096e-18
-1.7494727767768998e-19 -2.62487462875987e-17 6.4737286895295e-18
-3.534889626633e-20 -4.5517616531056e-18 1.0949186695423e-18
4.5708159488154e-19 5.1728187979235475e-17 -1.2142608280982079e-17
1.7543846856918e-19 1.807059856509848e-17 -4.146009840931e-18
-2.1172672771789998e-19 -2.0585365443015128e-17 4.63190394985322e-18
3.085857775489e-19 2.8539274624825216e-17 -6.30307369631458e-18
-6.7635214316466e-19 -5.99319080686166e-17 1.3023203599805749e-17
-1.05219048406291e-18 -9.209945404131553e-17 1.9686561217713728e-17
-6.088576224221e-20 -5.35755018690989e-18 1.13100486553664e-18
5.0158155729383e-19 4.4580092771682035e-17 -9.310359033420389e-18
5.336067157663499e-19 4.851637402577456e-17 -1.003697620048888e-17
-1.059908636346e-19 -9.78991322333792e-18 2.00863057440031e-18
2.2300624229937e-19 2.038471799083739e-17 -4.1526819909967696e-18
-1.6476728569973e-19 -1.568138953491356e-17 3.1730206173542196e-18
-6.011915338093e-20 -5.96741922343476e-18 1.1998551701338299e-18
2.0297995592127e-19 2.063944517730023e-17 -4.1289669770120594e-18
-4.5623940184394e-19 -4.75025400963327e-17 9.466928518444789e-18
8.184399505852099e-19 8.807634593682911e-17 -1.7509911758789378e-17
-1.6668673813655e-19 -1.8634391246838068e-17 3.70097028516732e-18
-5.6183688971535e-19 -6.616067986640048e-17 1.3147253603324739e-17
-3.3305949460999997e-21 -4.1803549362740997e-19 8.324347227210999e-20
2.5296968521112e-19 3.4301652488329896e-17 -6.868058965659499e-18
-2.7240837331237e-19 -4.0111469226393237e-17 8.06665432633332e-18
1.0808713932098e-19 1.7180117867821398e-17 -3.47416790877704e-18
3.3539733833211997e-19 5.857694626676383e-17 -1.192155156113835e-17
4.374511782712e-20 8.35942690155033e-18 -1.71342093227705e-18
7.5140156969e-21 1.54516961434208e-18 -3.1903074295779e-19
-9.049243408851999e-20 -1.9848709214856728e-17 4.1302406197564394e-18
-7.684115794329999e-20 -1.789648584677266e-17 3.7532392901584696e-18
-7.262267635937e-20 -1.761643514800338e-17 3.72310687436898e-18
-3.67772570999e-21 -9.217795138303999e-19 1.9627506282348e-19
-9.816406275319999e-20 -2.555571091249679e-17 5.48072025885323e-18
-3.1981849724409997e-20 -8.48583736511294e-18 1.83227868539525e-18
-1.0464905941033e-19 -2.8570382432261667e-17 6.216516210957679e-18
2.2738614495895e-19 6.174778316401813e-17 -1.351233619935486e-17
-1.589279955785e-20 -3.5224209427749595e-18 7.7485453381932e-19
-2.8639004130059e-19 -5.183716807986344e-17 1.145670009910273e-17
2.5538164080335997e-19 3.443386952161071e-17 -7.6423275089743e-18
2.044773807648e-20 2.2284997206099e-18 -4.9641154892062e-19
-6.6335979562106e-19 -6.072841020366092e-17 1.3570397389208189e-17
-5.2070228651407e-19 -3.759409293839337e-17 8.42363656445926e-18
-7.274375420696199e-19 -3.996822604550736e-17 8.976256314416609e-18
2.4242796143151e-19 7.03499972433682e-18 -1.5832151589646598e-18
5.02270571644754e-17 2.4277160522041267e-17 -4.3633226211582497e-17
4.03656752e-23 -2.4444702911519997e-20 6.93990514392e-21
-1.45166104025e-20 -4.4516320460359e-19 1.3053433779231e-19
1.0598378647482e-19 -7.803421940081239e-18 2.0941489509570497e-18
2.81349707936e-21 2.5028503801778597e-18 -6.6653305431327e-19
-3.764888881158e-20 -1.072889041019712e-17 2.78613315132686e-18
1.2033460574133e-19 2.328385286092516e-17 -5.8928101740401096e-18
-1.7494727767768998e-19 -2.62487462875987e-17 6.4737286895295e-18
-3.534889626633e-20 -4.5517616531056e-18 1.0949186695423e-18
4.5708159488154e-19 5.1728187979235475e-17 -1.2142608280982079e-17
1.7543846856918e-19 1.807059856509848e-17 -4.146009840931e-18
-2.1172672771789998e-19 -2.0585365443015128e-17 4.63190394985322e-18
3.085857775489e-19 2.8539274624825216e-17 -6.30307369631458e-18
-6.7635214316466e-19 -5.99319080686166e-17 1.3023203599805749e-17
-1.05219048406291e-18 -9.209945404131553e-17 1.9686561217713728e-17
-6.088576224221e-20 -5.35755018690989e-18 1.13100486553664e-18
5.0158155729383e-19 4.4580092771682035e-17 -9.310359033420389e-18
5.336067157663499e-19 4.851637402577456e-17 -1.003697620048888e-17
-1.059908636346e-19 -9.78991322333792e-18 2.00863057440031e-18
2.2300624229937e-19 2.038471799083739e-17 -4.1526819909967696e-18
-1.6476728569973e-19 -1.568138953491356e-17 3.1730206173542196e-18
-6.011915338093e-20 -5.96741922343476e-18 1.1998551701338299e-18
2.0297995592127e-19 2.063944517730023e-17 -4.1289669770120594e-18
-4.5623940184394e-19 -4.75025400963327e-17 9.466928518444789e-18
8.184399505852099e-19 8.807634593682911e-17 -1.7509911758789378e-17
-1.6668673813655e-19 -1.8634391246838068e-17 3.70097028516732e-18
-5.6183688971535e-19 -6.616067986640048e-17 1.3147253603324739e-17
-3.3305949460999997e-21 -4.1803549362740997e-19 8.324347227210999e-20
2.5296968521112e-19 3.4301652488329896e-17 -6.868058965659499e-18
-2.7240837331237e-19 -4.0111469226393237e-17 8.06665432633332e-18
1.0808713932098e-19 1.7180117867821398e-17 -3.47416790877704e-18
3.3539733833211997e-19 5.857694626676383e-17 -1.192155156113835e-17
4.374511782712e-20 8.35942690155033e-18 -1.71342093227705e-18
7.5140156969e-21 1.54516961434208e-18 -3.1903074295779e-19
-9.049243408851999e-20 -1.9848709214856728e-17 4.1302406197564394e-18
-7.684115794329999e-20 -1.789648584677266e-17 3.7532392901584696e-18
-7.262267635937e-20 -1.761643514800338e-17 3.72310687436898e-18
-3.67772570999e-21 -9.217795138303999e-19 1.9627506282348e-19
-9.816406275319999e-20 -2.555571091249679e-17 5.48072025885323e-18
-3.1981849724409997e-20 -8.48583736511294e-18 1.83227868539525e-18
-1.0464905941033e-19 -2.8570382432261667e-17 6.216516210957679e-18
2.2738614495895e-19 6.174778316401813e-17 -1.351233619935486e-17
-1.589279955785e-20 -3.5224209427749595e-18 7.7485453381932e-19
-2.8639004130059e-19 -5.183716807986344e-17 1.145670009910273e-17
2.5538164080335997e-19 3.443386952161071e-17 -7.6423275089743e-18
2.044773807648e-20 2.2284997206099e-18 -4.9641154892062e-19
-6.6335979562106e-19 -6.072841020366092e-17 1.3570397389208189e-17
-5.2070228651407e-19 -3.759409293839337e-17 8.42363656445926e-18
-7.274375420696199e-19 -3.996822604550736e-17 8.976256314416609e-18
2.4242796143151e-19 7.03499972433682e-18 -1.5832151589646598e-18

SCALARS Gamma float
LOOKUP_TABLE default
-0.00010528937594267354
0.0021611603807881264
-0.002510065231963598
0.003756428694320083
0.033016917945982445
0.07601796082379508
0.12311266469616126
0.1644377963160932
0.211092115967437
0.24190739158337685
0.2586239069675797
0.26897786389089506
0.2681617435525617
0.24401650145586093
0.23440209609152515
0.22798018117592664
0.21833683695001818
0.2149830170572371
0.21130095824328343
0.2049291298344983
0.2086791960402883
0.20682672830264517
0.19979352969152392
0.19614701967423293
0.19299884372207696
0.19161788653455622
0.1918465349641808
0.1923604383843189
0.193272825387995
0.1951989871363502
0.19370553754312503
0.1993429352254727
0.1969117735176343
0.1948077775756938
0.19217325212092679
0.1889472037478288
0.18518031554668235
0.1808885186401766
0.17618199213188934
0.16875365332231365
0.16195193439564207
0.1509258866772638
0.13520056399751887
0.11516078416690814
0.09870478169681991
0.08218837220457388
0.06983596285165604
0.05600052151173869
0.04280145416267345
0.023293312604029122
-0.00010528937594267354
0.0021611603807881264
-0.002510065231963598
0.003756428694320083
0.033016917945982445
0.07601796082379508
0.12311266469616126
0.1644377963160932
0.211092115967437
0.24190739158337685
0.2586239069675797
0.26897786389089506
0.2681617435525617
0.24401650145586093
0.23440209609152515
0.22798018117592664
0.21833683695001818
0.2149830170572371
0.21130095824328343
0.2049291298344983
0.2086791960402883
0.20682672830264517
0.19979352969152392
0.19614701967423293
0.19299884372207696
0.19161788653455622
0.1918465349641808
0.1923604383843189
0.193272825387995
0.1951989871363502
0.19370553754312503
0.1993429352254727
0.1969117735176343
0.1948077775756938
0.19217325212092679
0.1889472037478288
0.18518031554668235
0.1808885186401766
0.17618199213188934
0.16875365332231365
0.16195193439564207
0.1509258866772638
0.13520056399751887
0.11516078416690814
0.09870478169681991
0.08218837220457388
0.06983596285165604
0.05600052151173869
0.04280145416267345
0.023293312604029122

VECTORS Ftot float
0.041935240277710895 0.01520077227960331 0.056730054461763366
-0.01855452281751084 0.0005146202792789121 0.0019205890288741586
0.0588387128945492 0.02033780873982238 0.07590173553163443
-0.004045628384069041 0.03558754898955074 0.132814540945848
-0.4254446482645246 0.07815703815304008 0.29168603735624077
-1.212523198316529 0.13795757131015274 0.5148646654182893
-2.2653556570238473 0.21105888623435926 0.7876824868155173
-3.398039219616063 0.284648577891456 1.0623229549931261
-4.828957028484544 0.3667228108217398 1.3686281622811838
-6.047738991258988 0.43115836634828475 1.6091049293201716
-7.0024609917568466 0.4729589508584972 1.7651068344983596
-7.830554471139711 0.5025782783827443 1.8756476697048707
-8.338464151072374 0.5129966679758916 1.9145296289995435
-8.057550595089841 0.4810583207866625 1.795334094579567
-8.189083032956258 0.46254988890539367 1.726259686430245
-8.39272940712825 0.4495913829118575 1.6778978836721832
-8.437253261245607 0.43036873525998964 1.6061579859794186
-8.693184205342046 0.41949687765423493 1.5655836610220886
-8.911093014802034 0.41179528956257805 1.536840942965058
-8.982808008450544 0.40993372948700724 1.5298935061816856
-9.491800821451905 0.4073269941629549 1.520165037510438
-9.742288872345203 0.3932182906518745 1.4675106391781616
-9.7213544026982 0.37729756384382496 1.4080936778370974
-9.838955445901101 0.36880629605523346 1.3764038350294014
-9.963154123182916 0.35876787750065486 1.3389399469560725
-10.163081803254437 0.3513038118864475 1.3110836748528232
-10.438688549279536 0.343084239783227 1.2804078141471291
-10.72214533123197 0.3326091587176913 1.2413142793971474
-11.02042097398003 0.3215601485285564 1.2000788119979504
-11.371201413235243 0.3095658532709023 1.1553154926954035
-11.512618191439026 0.29526900599363143 1.1019589322685768
-12.073406473986354 0.2874942657181006 1.0729432065446438
-12.138577833596056 0.2702510249706137 1.0085905559878818
-12.208526726906046 0.2587507050624248 0.9656707777872255
-12.230446040234938 0.24958337222546023 0.9314578258697797
-12.199855538195228 0.24103917269053549 0.8995704390954345
-12.118709358927582 0.23648174855542706 0.8825619006715696
-11.987732851382068 0.23293368585193602 0.8693203503937009
-11.813948088565766 0.22733145368127844 0.8484125352970103
-11.440156164526314 0.22205604665953727 0.8287244482612669
-11.085810538607596 0.21603604802330523 0.8062575074893539
-10.428114486471568 0.2094881716334101 0.7818205001205849
-9.420352966011997 0.2374087786842119 0.8860216242123418
-8.08578033002943 0.255026513877943 0.9517719070696394
-6.977764509564517 0.30140358871656914 1.1248535066738141
-5.846279815815542 0.3180468784645834 1.1869671096184928
-4.99523014438731 0.3286358835626344 1.2264858146460242
-4.024713852145455 0.3403923535801941 1.2703615580692167
-3.088527108145304 0.3473373666235945 1.2962806996064151
-1.6852446306746414 0.36271734369503456 1.353679555456273
0.041935240277710895 0.01520077227960331 0.056730054461763366
-0.01855452281751084 0.0005146202792789121 0.0019205890288741586
0.0588387128945492 0.02033780873982238 0.07590173553163443
-0.004045628384069041 0.03558754898955074 0.132814540945848
-0.4254446482645246 0.07815703815304008 0.29168603735624077
-1.212523198316529 0.13795757131015274 0.5148646654182893
-2.2653556570238473 0.21105888623435926 0.7876824868155173
-3.398039219616063 0.284648577891456 1.0623229549931261
-4.828957028484544 0.3667228108217398 1.3686281622811838
-6.047738991258988 0.43115836634828475 1.6091049293201716
-7.0024609917568466 0.4729589508584972 1.7651068344983596
-7.830554471139711 0.5025782783827443 1.8756476697048707
-8.338464151072374 0.5129966679758916 1.9145296289995435
-8.057550595089841 0.4810583207866625 1.795334094579567
-8.189083032956258 0.46254988890539367 1.726259686430245
-8.39272940712825 0.4495913829118575 1.6778978836721832
-8.437253261245607 0.43036873525998964 1.6061579859794186
-8.693184205342046 0.41949687765423493 1.5655836610220886
-8.911093014802034 0.41179528956257805 1.536840942965058
-8.982808008450544 0.40993372948700724 1.5298935061816856
-9.491800821451905 0.4073269941629549 1.520165037510438
-9.742288872345203 0.3932182906518745 1.4675106391781616
-9.7213544026982 0.37729756384382496 1.4080936778370974
-9.838955445901101 0.36880629605523346 1.3764038350294014
-9.963154123182916 0.35876787750065486 1.3389399469560725
-10.163081803254437 0.3513038118864475 1.3110836748528232
-10.438688549279536 0.343084239783227 1.2804078141471291
-10.72214533123197 0.3326091587176913 1.2413142793971474
-11.02042097398003 0.3215601485285564 1.2000788119979504
-11.371201413235243 0.3095658532709023 1.1553154926954035
-11.512618191439026 0.29526900599363143 1.1019589322685768
-12.073406473986354 0.2874942657181006 1.0729432065446438
-12.138577833596056 0.2702510249706137 1.0085905559878818
-12.208526726906046 0.2587507050624248 0.9656707777872255
-12.230446040234938 0.24958337222546023 0.9314578258697797
-12.199855538195228 0.24103917269053549 0.8995704390954345
-12.118709358927582 0.23648174855542706 0.8825619006715696
-11.987732851382068 0.23293368585193602 0.8693203503937009
-11.813948088565766 0.22733145368127844 0.8484125352970103
-11.440156164526314 0.22205604665953727 0.8287244482612669
-11.085810538607596 0.21603604802330523 0.8062575074893539
-10.428114486471568 0.2094881716334101 0.7818205001205849
-9.420352966011997 0.2374087786842119 0.8860216242123418
-8.08578033002943 0.255026513877943 0.9517719070696394
-6.977764509564517 0.30140358871656914 1.1248535066738141
-5.846279815815542 0.3180468784645834 1.1869671096184928
-4.99523014438731 0.3286358835626344 1.2264858146460242
-4.024713852145455 0.3403923535801941 1.2703615580692167
-3.088527108145304 0.3473373666235945 1.2962806996064151
-1.6852446306746414 0.36271734369503456 1.353679555456273

VECTORS D float
0.041414814348987736 0.016359626976182613 0.05677575904957115
-0.002806328907232957 -0.0015685920322144088 -0.005508790979538202
0.034551825942400236 0.02375009422721569 0.08483778015057757
0.04114810485063177 0.03221798328587153 0.11797130551143617
0.048023711705867965 0.04079032419774555 0.15337152799399506
0.05055076209351795 0.045528786261648295 0.17600613886611183
0.05545888893595433 0.05224540835017748 0.20756616759994034
0.06225982875379917 0.06070205657679974 0.2478085114014297
0.0667262199597672 0.0673405709041863 0.2821003378238424
0.07114823410325645 0.07364439790218323 0.31640745692472694
0.07340551846847682 0.07814735298303635 0.34371543992913844
0.07600884946082251 0.08419775654394239 0.3776707617109483
0.07752133858082716 0.08925751154077827 0.40793852977425926
0.07556177042853704 0.09075289002554948 0.42156295762933854
0.06964258709722355 0.0874778903496102 0.412969188443087
0.06493121742893512 0.08538092954818051 0.4079434278180145
0.06015681210735603 0.08284177989735547 0.39990592922668167
0.05549994996159953 0.08004628582155762 0.389875457523387
0.05332187954697478 0.08054632709440396 0.3953903693882192
0.056162821762094695 0.08888409344856053 0.43933097757392325
0.05296494007370257 0.0890826766862061 0.4430059595750274
0.04763141283777673 0.08408402357106802 0.4205742421392353
0.04503130040509289 0.08365945366231536 0.4204018023059332
0.04385249293173769 0.08608912773956034 0.43408582513797317
0.04205234606242979 0.08770863137793176 0.4431474690343243
0.040593143083590355 0.09053863138509202 0.4576904131284568
0.038453553988500686 0.09239388290442616 0.46659529957446955
0.03577888875047411 0.0933425535034913 0.4701829987146918
0.03301182795556526 0.0941322704441034 0.4713476451823723
0.03003378666499595 0.09433470990668767 0.4700939342341131
0.027440940633571175 0.09558857860243064 0.47354909238101783
0.025047698407746684 0.09738781590161796 0.4792230072725821
0.022218236056505518 0.09700454938519282 0.47383241546991584
0.020363023948550312 0.10084607354747986 0.48890992512747994
0.01879777775171182 0.10579271947436465 0.508820230111366
0.017229898909879922 0.11081915088909154 0.528769198389607
0.016021549288714323 0.11846184133941558 0.560832375678591
0.014764852624861428 0.12628349904232666 0.5933501778312069
0.01322433640784865 0.13169506915416374 0.6143096365948381
0.011747093864403 0.13713182313162592 0.635304035213387
0.010394479661382912 0.1399968342517772 0.6435840799942998
0.009002696656465857 0.1427322487254211 0.6523999183588878
0.009261413977278457 0.17361417635426182 0.78942481956423
0.008779736785730642 0.19545851121565996 0.8845941710999695
0.009022190200556696 0.23967364827103613 1.0801938577450845
0.008097682071392661 0.2581906549260068 1.159407719059227
0.007011638027538314 0.27042572466021136 1.2105154406620509
0.0060059821158480724 0.28314628744915177 1.2640330684575838
0.004985493612824404 0.29119452200602924 1.2969945048552025
0.004165019371530358 0.3061977155864643 1.3612240570689331
0.041414814348987736 0.016359626976182613 0.05677575904957115
-0.002806328907232957 -0.0015685920322144088 -0.005508790979538202
0.034551825942400236 0.02375009422721569 0.08483778015057757
0.04114810485063177 0.03221798328587153 0.11797130551143617
0.048023711705867965 0.04079032419774555 0.15337152799399506
0.05055076209351795 0.045528786261648295 0.17600613886611183
0.05545888893595433 0.05224540835017748 0.20756616759994034
0.06225982875379917 0.06070205657679974 0.2478085114014297
0.0667262199597672 0.0673405709041863 0.2821003378238424
0.07114823410325645 0.07364439790218323 0.31640745692472694
0.07340551846847682 0.07814735298303635 0.34371543992913844
0.07600884946082251 0.08419775654394239 0.3776707617109483
0.07752133858082716 0.08925751154077827 0.40793852977425926
0.07556177042853704 0.09075289002554948 0.42156295762933854
0.06964258709722355 0.0874778903496102 0.412969188443087
0.06493121742893512 0.08538092954818051 0.4079434278180145
0.06015681210735603 0.08284177989735547 0.39990592922668167
0.05549994996159953 0.08004628582155762 0.389875457523387
0.05332187954697478 0.08054632709440396 0.3953903693882192
0.056162821762094695 0.08888409344856053 0.43933097757392325
0.05296494007370257 0.0890826766862061 0.4430059595750274
0.04763141283777673 0.08408402357106802 0.4205742421392353
0.04503130040509289 0.08365945366231536 0.4204018023059332
0.04385249293173769 0.08608912773956034 0.43408582513797317
0.04205234606242979 0.08770863137793176 0.4431474690343243
0.040593143083590355 0.09053863138509202 0.4576904131284568
0.038453553988500686 0.09239388290442616 0.46659529957446955
0.03577888875047411 0.0933425535034913 0.4701829987146918