# vtk DataFile Version 4.0
[MyVLM domain - lattices] 
ASCII
DATASET UNSTRUCTURED_GRID
POINTS 152 float
0.0018916144324157278 -0.0029501169483969435 -0.009683327559739314
0.0010688609733395774 -0.0014047335885637815 -0.01365125001694228
0.00045780959861706216 9.760853963819888e-5 -0.017556554955075725
-0.00013255382275044122 0.0016691697350334803 -0.02132063686666107
-0.0007201482309470062 0.003262816456441297 -0.024976499012535604
-0.0011946371146526612 0.005001079612830122 -0.02843834432657592
-0.0014108622120167862 0.0071328355176313515 -0.031531907738035506
-0.0013224843579428829 0.00945060537163962 -0.03440246746613666
-0.0010167791708201568 0.01165154567289658 -0.037262076813848445
-0.0006138083932142036 0.013938215604501744 -0.03996890231423099
-0.00020084691410191335 0.016217083559689826 -0.04258843550340219
0.0001698744379422134 0.0183706451411377 -0.0452029538461405
0.0004739400232210948 0.02045924332479961 -0.047770204735804754
0.0007082255455298663 0.022549888922341405 -0.05024326669692498
0.0008836440760600275 0.024632951693862665 -0.0526288828960742
0.001017516815515788 0.026659904349735232 -0.05496103250725895
0.0011275777072549662 0.028586300562086973 -0.05727083718430104
0.0012277625198140337 0.03040103352686765 -0.05956607399512185
0.00132638558954348 0.03213181129826973 -0.0618273415513067
0.0014271324949937316 0.03381944761772571 -0.06402606176344204
0.0015306083418583354 0.03549088477794261 -0.06614336943507772
0.0016355657532635378 0.03714673432707145 -0.06817883635558845
0.0017398364473795213 0.038770499544545534 -0.07014401365307074
0.0018410131526058282 0.04034309834478917 -0.07205226274768947
0.001936923789896676 0.041850506243651824 -0.07391340368896636
0.0020259353317291845 0.0432848898514961 -0.0757329214753752
0.0021071205190511294 0.04464417751890774 -0.07751226669145245
0.002180316672546981 0.045931360145745156 -0.07924934508657115
0.0022461021518325993 0.04715362197061008 -0.08093912620270613
0.0023056987632523672 0.04832126130428661 -0.08257439908501549
0.0023607022647827588 0.04944552678269282 -0.08414728735383484
0.0024126938092907785 0.05053571206194066 -0.08565128352109708
0.0024629658139780817 0.05159730758772966 -0.08708254313533524
0.0025123806343549317 0.0526312997259885 -0.08844037553569063
0.0025613283706516186 0.05363430146855278 -0.08972715233081194
0.0026097549007438213 0.054599246029659126 -0.09094782173736163
0.0026572361369983943 0.055516429950223004 -0.09210917819053735
0.002703078927872171 0.056375424043224404 -0.09321852428570794
0.0027464329900004744 0.057169671950246866 -0.09428045083445981
0.0027864017842759935 0.057900301643674656 -0.0952941680220266
0.0028221433614242725 0.05857650086546981 -0.09625324252222736
0.0028529549202113143 0.05921356516131947 -0.09714696427867092
0.002878337166053322 0.05983028731579065 -0.09796217444193953
0.0028980365508205295 0.06044979085657071 -0.09868268174363647
0.0029120651374179955 0.06110059461434145 -0.09928851708353743
0.002920699186668212 0.061811751394415644 -0.09975933746835629
0.0029244586304951574 0.06260510724624838 -0.10007984612958445
0.002924070395798875 0.06348816705406742 -0.10024478809071226
0.0029204190990956736 0.06444959516677029 -0.1002621006600922
0.0029144889643634465 0.06545822354406935 -0.10015360793448488
0.002907300946956263 0.06646557386765237 -0.09995325479781227
0.006212993241944028 0.009005668694534875 -0.0013117963273390966
0.0072288922610571306 0.013878703548600308 -0.0029496721237458412
0.007974780507892725 0.017471887237345076 -0.005390954039985085
0.008270023946844132 0.020246301298338203 -0.008312789307721674
0.008140225139500825 0.022416092913306963 -0.01156523045602381
0.007751519283975376 0.024296233104370128 -0.014927732400886308
0.007318662739924205 0.02627089971163334 -0.018131290922654086
0.0069707766105224795 0.02822276997094294 -0.02125805630519112
0.006702226685381192 0.029909648035114405 -0.024477615906419108
0.006460614097576536 0.03157827865841895 -0.027617197189383658
0.006208498480286784 0.033169804869632585 -0.030718012249011977
0.005928720355726676 0.03459422105346662 -0.03384308369561041
0.00562110152420414 0.03593343130265291 -0.03693506166603789
0.005297776270156929 0.03727139799478172 -0.039935155070579716
0.004977662142563614 0.03861182818929406 -0.04284076819827068
0.004680078492205027 0.03991675495519616 -0.04567848578039533
0.0044193472589770496 0.041150276551974056 -0.04847344648629637
0.0042022226504668725 0.04230823391291654 -0.05122856252583691
0.004028605706719037 0.04342376275484786 -0.053920632020312644
0.003894567528214928 0.044541472355220615 -0.05651841921737717
0.003794542923454683 0.04569053046444908 -0.05900150063831781
0.0037223892098821663 0.04687240056774329 -0.06136885153975838
0.0036720478837599236 0.04807026711399925 -0.06363224629734111
0.0036379885391020494 0.04926374874606994 -0.06580595609097926
0.003615480687410345 0.050436720513344364 -0.0679012717326439
0.003600729157216099 0.05157861597129004 -0.06992559192644877
0.0035909263662617956 0.052684152578274586 -0.07188261554786576
0.003584242976167935 0.053752773757408966 -0.07377273231622816
0.00357976601221264 0.05478790853660109 -0.07559354120034614
0.003577378730160166 0.055796009270672284 -0.07734052421273459
0.0035774796054096774 0.05678449246924542 -0.07900848825744836
0.003580588564800478 0.057758925315103946 -0.0805935351511359
0.0035870678637920984 0.05872125653572716 -0.08209430038012629
0.0035969747054953923 0.0596691816399854 -0.08351239756648025
0.0036100119296844893 0.06059632660779921 -0.08485228984710612
0.0036255480079795204 0.061492981481996965 -0.08612077620721117
0.0036426825552804717 0.06234717084887039 -0.08732624192174712
0.0036603380175139954 0.06314658011958328 -0.08847730975864701
0.003677362157174432 0.06388315814275267 -0.08957961719480048
0.0036926294639041822 0.06455692239628201 -0.09063315199204777
0.0037051326977571345 0.065176318788432 -0.09163200026175772
0.003714058455611533 0.0657562458644587 -0.09256572993023367
0.003718842962038476 0.06631541343457986 -0.09342124024732268
0.003719206248598144 0.06687713954950357 -0.0941822037381426
0.003715164522496519 0.06747037409317534 -0.09482834947572447
0.0037070218583473346 0.06812479333538592 -0.09533889791225487
0.003695343396461056 0.06886301320028519 -0.09569801320716047
0.003680913018392471 0.06969340820897076 -0.09589983145763985
0.0036646790161518838 0.07060556599732364 -0.0959516434795397
0.003647691596346039 0.071569251001828 -0.0958746204423558
0.0036310361855396924 0.0725368847967533 -0.09570207711844082
0.005410766489344848 0.008037283274055604 -0.004514872866242051
0.005892211109850776 0.011593080913613824 -0.007028710432901348
0.006132458642509649 0.01436516798521519 -0.009998552733107135
0.006047255650667177 0.016614896103301285 -0.013241399396304138
0.005720055990603616 0.018550109265287835 -0.016611716488730235
0.005325630843128663 0.020479414197308983 -0.019893415254404075
0.005016871435172548 0.022508056242124975 -0.023012802110963477
0.004834968294868498 0.024437425632838527 -0.026108945114351977
0.004732241848104854 0.026256692669749806 -0.02918942730193597
0.00464908530328423 0.028049943718543274 -0.03219537076660251
0.004547585503985086 0.029734975808765638 -0.03518433464792623
0.004411660012619469 0.03130160569178699 -0.03816344933336127
0.004242349868979272 0.03282795251743061 -0.04107801520532282
0.00405227310746894 0.03435406489605393 -0.043899989924943796
0.003859297849485217 0.03585982568463356 -0.0466434596674164
0.0036804214720396232 0.03730591242916661 -0.04933595831145438
0.003527506244425096 0.0386703581854533 -0.05199286727697785
0.003405829147614405 0.03996610435355383 -0.054605124898109654
0.003315379723667389 0.041230870530775114 -0.05714631962847729
0.003253134023982613 0.04250079260683468 -0.05959114884570058
0.003214621311891553 0.0437908015251989 -0.061929157790611845
0.0031948391851961662 0.04509315461460558 -0.06416576793999472
0.0031888698585714084 0.046389455683692786 -0.06631386044571518
0.0031922930777549615 0.04766187654583549 -0.06838591873844067
0.003201436081938149 0.0488976756936314 -0.07039086451770246
0.0032135028026517493 0.050089671627387214 -0.07233372632372141
0.003226618152360912 0.051235789583962944 -0.07421595692128818
0.0032398057236901635 0.052338378624798176 -0.07603591147987503
0.003252904392775423 0.053403329587089605 -0.07778946519087047
0.003266372004343082 0.05443853666334157 -0.0794710904811749
0.0032809500730880004 0.0554514365247102 -0.08107558013758559
0.0032973286136308236 0.056446695650270454 -0.08259966665627737
0.0033159342695244357 0.05742499023010698 -0.08404287656385569
0.0033368336138182735 0.0583827657422369 -0.08540769876340772
0.0033597203855484335 0.05931268397095006 -0.08669927152889069
0.0033839603409402744 0.060204516621560525 -0.08792475678934675
0.003408672097906746 0.06104663836235106 -0.08909229468967847
0.0034328265552422406 0.0618292888475599 -0.09020871949756379
0.0034553512046890385 0.0625487769013782 -0.09127661580212891
0.003475228953835527 0.06320956575791081 -0.0922928584132088
0.0034915839677176984 0.06382346999818267 -0.09324917467210907
0.0035037495424018335 0.06440735379677823 -0.09413375615665995
0.0035113151685979642 0.06498221714057646 -0.09493189851774649
0.003514151750190315 0.06557411579986862 -0.09562535730859689
0.003512415433327221 0.06621223103680511 -0.09619369958947897
0.0035065316976985676 0.06692253478095968 -0.09661873961952334
0.0034971622838568268 0.06772031731601047 -0.09688977102683721
0.003485158199815951 0.06860433560496511 -0.0970076641952929
0.0034715024876191118 0.06955403371353681 -0.09698681254503295
0.003457246657122113 0.07053027560093321 -0.09685461942683588

CELLS 100 350
4 0 51 52 1
4 1 52 53 2
4 2 53 54 3
4 3 54 55 4
4 4 55 56 5
4 5 56 57 6
4 6 57 58 7
4 7 58 59 8
4 8 59 60 9
4 9 60 61 10
4 10 61 62 11
4 11 62 63 12
4 12 63 64 13
4 13 64 65 14
4 14 65 66 15
4 15 66 67 16
4 16 67 68 17
4 17 68 69 18
4 18 69 70 19
4 19 70 71 20
4 20 71 72 21
4 21 72 73 22
4 22 73 74 23
4 23 74 75 24
4 24 75 76 25
4 25 76 77 26
4 26 77 78 27
4 27 78 79 28
4 28 79 80 29
4 29 80 81 30
4 30 81 82 31
4 31 82 83 32
4 32 83 84 33
4 33 84 85 34
4 34 85 86 35
4 35 86 87 36
4 36 87 88 37
4 37 88 89 38
4 38 89 90 39
4 39 90 91 40
4 40 91 92 41
4 41 92 93 42
4 42 93 94 43
4 43 94 95 44
4 44 95 96 45
4 45 96 97 46
4 46 97 98 47
4 47 98 99 48
4 48 99 100 49
4 49 100 101 50
1 102
1 103
1 104
1 105
1 106
1 107
1 108
1 109
1 110
1 111
1 112
1 113
1 114
1 115
1 116
1 117
1 118
1 119
1 120
1 121
1 122
1 123
1 124
1 125
1 126
1 127
1 128
1 129
1 130
1 131
1 132
1 133
1 134
1 135
1 136
1 137
1 138
1 139
1 140
1 141
1 142
1 143
1 144
1 145
1 146
1 147
1 148
1 149
1 150
1 151

CELL_TYPES 100
9
9
9
9
9
9
9
9
9
9
9
9
9
9
9
9
9
9
9
9
9
9
9
9
9
9
9
9
9
9
9
9
9
9
9
9
9
9
9
9
9
9
9
9
9
9
9
9
9
9
1
1
1
1
1
1
1
1
1
1
1
1
1
1
1
1
1
1
1
1
1
1
1
1
1
1
1
1
1
1
1
1
1
1
1
1
1
1
1
1
1
1
1
1
1
1
1
1
1
1

CELL_DATA 100

VECTORS S float
-7.985858293025e-17 9.007538363589122e-17 4.099657947496034e-17
3.911261528102e-18 -1.840668224281097e-17 1.5827932905370738e-17
-4.800293691233e-20 -2.12567759943832e-18 2.4074380464738797e-18
-5.2524987176239995e-20 1.34735612980029e-18 -1.45750985405077e-18
-2.195244840716e-20 1.40522793331195e-18 -1.54301799846862e-18
-1.4573254441298998e-19 -3.17927202005598e-18 3.59062564656353e-18
-7.9407371414905e-19 -2.9146640244618116e-17 3.249940438658209e-17
-2.9072372088572e-19 -1.2781758365713039e-17 1.4177067040623348e-17
-3.0488431723442e-19 -1.454021089108899e-17 1.6037184538400718e-17
-1.42511664275687e-18 -7.157335436654061e-17 7.861658150539194e-17
5.0931747187096e-19 2.639876232443626e-17 -2.887766474529801e-17
9.3332781023448e-19 4.882491000427551e-17 -5.318950709349327e-17
-2.9061144825927997e-18 -1.539721585320114e-16 1.6701377238990234e-16
1.06235572916089e-18 5.47920834809556e-17 -5.917921641267499e-17
-3.0753139268094e-19 -1.5829141313626698e-17 1.701818460559564e-17
2.02127227390718e-18 1.037085408374922e-16 -1.1096659026536623e-16
6.3723653713574995e-19 3.169576685489895e-17 -3.374912863260854e-17
-7.9128431810774e-19 -3.9193617993083275e-17 4.1514599001871626e-17
-4.3103120211361e-19 -2.0697824207761777e-17 2.1806230690309598e-17
1.85543926743703e-18 9.040880537118869e-17 -9.47007822325357e-17
7.7541321511188e-19 3.721008228325984e-17 -3.8750539447972915e-17
1.02447333580225e-18 4.953040836455759e-17 -5.127374408895225e-17
9.5664462082668e-19 4.6150236079788304e-17 -4.7495087567919197e-17
1.8529297106428e-18 8.956043605428577e-17 -9.164945639305219e-17
-1.5178668688116399e-18 -7.439415565824058e-17 7.572482901336394e-17
3.17814540185485e-18 1.5869659384755226e-16 -1.6076168905281756e-16
1.38171401828911e-18 7.040833080364826e-17 -7.103156367750661e-17
1.5808486630418798e-18 8.220037318304711e-17 -8.265368107567216e-17
7.0277164300648e-19 3.7921763320698516e-17 -3.8036592422369796e-17
1.90114022235065e-18 1.0764744842402231e-16 -1.0780308596323837e-16
-6.8509119706966e-19 -4.132749471225336e-17 4.1358833660295486e-17
-4.6716059115690995e-19 -3.093466216126114e-17 3.096281061879989e-17
1.80234189427944e-18 1.287615918584724e-16 -1.2900773109422853e-16
-2.6912242839659e-19 -2.093161764672664e-17 2.100760092928262e-17
-1.6976851081474e-19 -1.4334224211485618e-17 1.4419913380584e-17
-2.1603620602416e-19 -1.9737302064438817e-17 1.991189216211688e-17
-4.6264127583169995e-20 -4.4984831926575996e-18 4.55305586239324e-18
-1.1541545664433e-19 -1.182334610270408e-17 1.200922485260038e-17
-2.4566622266526997e-19 -2.6400535828564688e-17 2.6868060986558558e-17
5.9192635533682e-19 6.629136323229168e-17 -6.772713440416878e-17
-3.917945464001e-20 -4.60899608382521e-18 4.7269863332453395e-18
-1.9938303979836e-19 -2.3943229461585698e-17 2.464900868442138e-17
4.0480323884587996e-19 4.0483399753950356e-17 -4.183642693886919e-17
-9.7090531176006e-19 -8.09011985831379e-17 8.389958812941742e-17
1.89317162428167e-18 1.1999474613926997e-16 -1.2484313744918212e-16
-2.0317212627568698e-18 -1.0738073588122557e-16 1.1203909480967822e-16
2.83845240256592e-18 1.3306371170968863e-16 -1.3918095671430117e-16
3.64497731257699e-18 1.4663053497174456e-16 -1.5369342937330167e-16
-2.88738538003906e-18 -8.002137973018479e-17 8.3925713947318e-17
-4.431972749442e-19 -5.84684140769061e-18 6.1420653439538595e-18
-7.985858293025e-17 9.007538363589122e-17 4.099657947496034e-17
3.911261528102e-18 -1.840668224281097e-17 1.5827932905370738e-17
-4.800293691233e-20 -2.12567759943832e-18 2.4074380464738797e-18
-5.2524987176239995e-20 1.34735612980029e-18 -1.45750985405077e-18
-2.195244840716e-20 1.40522793331195e-18 -1.54301799846862e-18
-1.4573254441298998e-19 -3.17927202005598e-18 3.59062564656353e-18
-7.9407371414905e-19 -2.9146640244618116e-17 3.249940438658209e-17
-2.9072372088572e-19 -1.2781758365713039e-17 1.4177067040623348e-17
-3.0488431723442e-19 -1.454021089108899e-17 1.6037184538400718e-17
-1.42511664275687e-18 -7.157335436654061e-17 7.861658150539194e-17
5.0931747187096e-19 2.639876232443626e-17 -2.887766474529801e-17
9.3332781023448e-19 4.882491000427551e-17 -5.318950709349327e-17
-2.9061144825927997e-18 -1.539721585320114e-16 1.6701377238990234e-16
1.06235572916089e-18 5.47920834809556e-17 -5.917921641267499e-17
-3.0753139268094e-19 -1.5829141313626698e-17 1.701818460559564e-17
2.02127227390718e-18 1.037085408374922e-16 -1.1096659026536623e-16
6.3723653713574995e-19 3.169576685489895e-17 -3.374912863260854e-17
-7.9128431810774e-19 -3.9193617993083275e-17 4.1514599001871626e-17
-4.3103120211361e-19 -2.0697824207761777e-17 2.1806230690309598e-17
1.85543926743703e-18 9.040880537118869e-17 -9.47007822325357e-17
7.7541321511188e-19 3.721008228325984e-17 -3.8750539447972915e-17
1.02447333580225e-18 4.953040836455759e-17 -5.127374408895225e-17
9.5664462082668e-19 4.6150236079788304e-17 -4.7495087567919197e-17
1.8529297106428e-18 8.956043605428577e-17 -9.164945639305219e-17
-1.5178668688116399e-18 -7.439415565824058e-17 7.572482901336394e-17
3.17814540185485e-18 1.5869659384755226e-16 -1.6076168905281756e-16
1.38171401828911e-18 7.040833080364826e-17 -7.103156367750661e-17
1.5808486630418798e-18 8.220037318304711e-17 -8.265368107567216e-17
7.0277164300648e-19 3.7921763320698516e-17 -3.8036592422369796e-17
1.90114022235065e-18 1.0764744842402231e-16 -1.0780308596323837e-16
-6.8509119706966e-19 -4.132749471225336e-17 4.1358833660295486e-17
-4.6716059115690995e-19 -3.093466216126114e-17 3.096281061879989e-17
1.80234189427944e-18 1.287615918584724e-16 -1.2900773109422853e-16
-2.6912242839659e-19 -2.093161764672664e-17 2.100760092928262e-17
-1.6976851081474e-19 -1.4334224211485618e-17 1.4419913380584e-17
-2.1603620602416e-19 -1.9737302064438817e-17 1.991189216211688e-17
-4.6264127583169995e-20 -4.4984831926575996e-18 4.55305586239324e-18
-1.1541545664433e-19 -1.182334610270408e-17 1.200922485260038e-17
-2.4566622266526997e-19 -2.6400535828564688e-17 2.6868060986558558e-17
5.9192635533682e-19 6.629136323229168e-17 -6.772713440416878e-17
-3.917945464001e-20 -4.60899608382521e-18 4.7269863332453395e-18
-1.9938303979836e-19 -2.3943229461585698e-17 2.464900868442138e-17
4.0480323884587996e-19 4.0483399753950356e-17 -4.183642693886919e-17
-9.7090531176006e-19 -8.09011985831379e-17 8.389958812941742e-17
1.89317162428167e-18 1.1999474613926997e-16 -1.2484313744918212e-16
-2.0317212627568698e-18 -1.0738073588122557e-16 1.1203909480967822e-16
2.83845240256592e-18 1.3306371170968863e-16 -1.3918095671430117e-16
3.64497731257699e-18 1.4663053497174456e-16 -1.5369342937330167e-16
-2.88738538003906e-18 -8.002137973018479e-17 8.3925713947318e-17
-4.431972749442e-19 -5.84684140769061e-18 6.1420653439538595e-18

SCALARS Gamma float
LOOKUP_TABLE default
-0.0001352133123314918
-0.004069796870908552
0.02972204141463314
-0.003216073282116101
-0.012296309968810516
0.01397313659838907
0.05650477094403757
0.10581149017147459
0.14978651351197242
0.18158103416936014
0.19508042402695216
0.20505997222808464
0.20779571051491677
0.1805829279965507
0.1679253117794139
0.16025267854596398
0.14826661642045164
0.14926668283815317
0.14105312045458632
0.1429930227646215
0.14096169564317237
0.1380569359805309
0.1359630612821045
0.13648383408996312
0.13916071660650625
0.14168365509796998
0.14289758838010466
0.14064126567610175
0.14120822163370816
0.14309222818119044
0.14662902804652928
0.15734931864670343
0.16042130436408758
0.16287811990973602
0.16477979279580232
0.16548938073459907
0.165330736831585
0.16433141725968106
0.16299997167675725
0.15885548333479232
0.15568292563623845
0.1475688248721393
0.1342981683234364
0.11657383604132013
0.10236212998832393
0.08832124668584419
0.07953459216366981
0.06965325359425217
0.04897130024125209
0.024074609769669204
-0.0001352133123314918
-0.004069796870908552
0.02972204141463314
-0.003216073282116101
-0.012296309968810516
0.01397313659838907
0.05650477094403757
0.10581149017147459
0.14978651351197242
0.18158103416936014
0.19508042402695216
0.20505997222808464
0.20779571051491677
0.1805829279965507
0.1679253117794139
0.16025267854596398
0.14826661642045164
0.14926668283815317
0.14105312045458632
0.1429930227646215
0.14096169564317237
0.1380569359805309
0.1359630612821045
0.13648383408996312
0.13916071660650625
0.14168365509796998
0.14289758838010466
0.14064126567610175
0.14120822163370816
0.14309222818119044
0.14662902804652928
0.15734931864670343
0.16042130436408758
0.16287811990973602
0.16477979279580232
0.16548938073459907
0.165330736831585
0.16433141725968106
0.16299997167675725
0.15885548333479232
0.15568292563623845
0.1475688248721393
0.1342981683234364
0.11657383604132013
0.10236212998832393
0.08832124668584419
0.07953459216366981
0.06965325359425217
0.04897130024125209
0.024074609769669204

VECTORS Ftot float
0.17382473939732918 0.11151902501516879 0.09357557275947728
0.24423021922250673 0.1863728280124769 0.15638537124673482
-0.29890039907303795 0.13587570441662067 0.11401325346193864
0.06764862652701122 0.02857220157967241 0.023974923807425833
0.2375998334001693 0.04721034528786396 0.039614183318798395
-0.19045736043409778 0.16682258554240556 0.1399807700006717
-1.0198017267680979 0.431569429365892 0.3621297490083064
-2.188833577513164 0.7183962963305296 0.6028060672900668
-3.449369864126322 0.9706885392329206 0.8145043952583504
-4.576533208640907 1.163369522380912 0.9761829371527043
-5.325275747360811 1.2513150353933393 1.0499779846851283
-6.010976366284478 1.337798642293346 1.1225463473378041
-6.503523712977224 1.3664980138302938 1.1466279794094765
-5.990505103549477 1.2393893941308802 1.0399711835002463
-5.8866524813570305 1.1685666287166516 0.9805438271622123
-5.9130284124824355 1.1279028435778926 0.9464228600500079
-5.731991961134982 1.0816578602378415 0.9076187115855718
-6.034727468610818 1.095544255835012 0.9192707810095392
-5.940760395371288 1.066839183053517 0.8951843650256702
-6.267674632991733 1.062480570074595 0.8915270544826122
-6.40760119995999 1.0583701391930969 0.8880779934459675
-6.49765839998896 1.0230609697408573 0.8584500823814173
-6.609385300823846 1.0040823826210932 0.8425251569289576
-6.839785487071385 1.001282311694193 0.8401756184469252
-7.178046028515338 1.0038548639709495 0.8423342461135358
-7.509430781080338 1.0027117197528177 0.8413750342217191
-7.76958749553183 0.9934827459315928 0.8336310056921846
-7.8323806291190685 0.9638874148181746 0.8087975742703462
-8.044933568250519 0.9414645284529544 0.7899825385913599
-8.329260980960234 0.9211848701180816 0.772965884762167
-8.710053317088757 0.9009360083240071 0.7559750722989994
-9.52850248152436 0.8985747407480336 0.7539937335468894
-9.889181857183754 0.8689711637069228 0.7291533829701652
-10.209922078165983 0.8315969734400207 0.6977927137016584
-10.491662030158036 0.7971222251524792 0.668864965128653
-10.691685799882261 0.7624984174733065 0.6398121408751063
-10.82758910452484 0.7388161739909077 0.619940379103575
-10.899610377002338 0.7203254327700187 0.6044248049649327
-10.940979565917704 0.6971314348784754 0.5849627298886123
-10.78123351334709 0.6744874190421672 0.5659621445519938
-10.675041871108075 0.6508761225952298 0.5461499144117512
-10.214785578234286 0.6246918633935197 0.5241787121729462
-9.374935903497292 0.7055919031919893 0.5920619057300688
-8.201152301286786 0.7582590022795744 0.6362548491496384
-7.251801721605692 0.9009109079075823 0.755954010548835
-6.297268130475008 0.957028277628161 0.8030420747840114
-5.703559262186836 0.9946095316781552 0.8345764911965409
-5.020344285972616 1.0358083535780662 0.8691464074576943
-3.5465323002892415 1.0667609573737626 0.8951187258866398
-1.7520617007491732 1.1204443217362308 0.9401644171235418
0.17382473939732918 0.11151902501516879 0.09357557275947728
0.24423021922250673 0.1863728280124769 0.15638537124673482
-0.29890039907303795 0.13587570441662067 0.11401325346193864
0.06764862652701122 0.02857220157967241 0.023974923807425833
0.2375998334001693 0.04721034528786396 0.039614183318798395
-0.19045736043409778 0.16682258554240556 0.1399807700006717
-1.0198017267680979 0.431569429365892 0.3621297490083064
-2.188833577513164 0.7183962963305296 0.6028060672900668
-3.449369864126322 0.9706885392329206 0.8145043952583504
-4.576533208640907 1.163369522380912 0.9761829371527043
-5.325275747360811 1.2513150353933393 1.0499779846851283
-6.010976366284478 1.337798642293346 1.1225463473378041
-6.503523712977224 1.3664980138302938 1.1466279794094765
-5.990505103549477 1.2393893941308802 1.0399711835002463
-5.8866524813570305 1.1685666287166516 0.9805438271622123
-5.9130284124824355 1.1279028435778926 0.9464228600500079
-5.731991961134982 1.0816578602378415 0.9076187115855718
-6.034727468610818 1.095544255835012 0.9192707810095392
-5.940760395371288 1.066839183053517 0.8951843650256702
-6.267674632991733 1.062480570074595 0.8915270544826122
-6.40760119995999 1.0583701391930969 0.8880779934459675
-6.49765839998896 1.0230609697408573 0.8584500823814173
-6.609385300823846 1.0040823826210932 0.8425251569289576
-6.839785487071385 1.001282311694193 0.8401756184469252
-7.178046028515338 1.0038548639709495 0.8423342461135358
-7.509430781080338 1.0027117197528177 0.8413750342217191
-7.76958749553183 0.9934827459315928 0.8336310056921846
-7.8323806291190685 0.9638874148181746 0.8087975742703462
-8.044933568250519 0.9414645284529544 0.7899825385913599
-8.329260980960234 0.9211848701180816 0.772965884762167
-8.710053317088757 0.9009360083240071 0.7559750722989994
-9.52850248152436 0.8985747407480336 0.7539937335468894
-9.889181857183754 0.8689711637069228 0.7291533829701652
-10.209922078165983 0.8315969734400207 0.6977927137016584
-10.491662030158036 0.7971222251524792 0.668864965128653
-10.691685799882261 0.7624984174733065 0.6398121408751063
-10.82758910452484 0.7388161739909077 0.619940379103575
-10.899610377002338 0.7203254327700187 0.6044248049649327
-10.940979565917704 0.6971314348784754 0.5849627298886123
-10.78123351334709 0.6744874190421672 0.5659621445519938
-10.675041871108075 0.6508761225952298 0.5461499144117512
-10.214785578234286 0.6246918633935197 0.5241787121729462
-9.374935903497292 0.7055919031919893 0.5920619057300688
-8.201152301286786 0.7582590022795744 0.6362548491496384
-7.251801721605692 0.9009109079075823 0.755954010548835
-6.297268130475008 0.957028277628161 0.8030420747840114
-5.703559262186836 0.9946095316781552 0.8345764911965409
-5.020344285972616 1.0358083535780662 0.8691464074576943
-3.5465323002892415 1.0667609573737626 0.8951187258866398
-1.7520617007491732 1.1204443217362308 0.9401644171235418

VECTORS D float
0.1730504924137732 0.10886762612316898 0.09789289648966715
0.21325110418367468 0.19922613581578158 0.17898808099218166
-0.0014199563723500373 -0.001748718390639549 -0.0015723659399721022
0.02774770750346315 0.0421861027779627 0.03799786055343849
0.05627261880872282 0.10124261419207688 0.09140115532227566
0.04746411352524364 0.09800825869104901 0.08870654085814776
0.0686826920828017 0.1589471171681641 0.1442276758879564
0.08064921050681666 0.2052908068063234 0.1867399031322728
0.08575107573739105 0.2367453782645534 0.21627685815614112
0.08865132345953249 0.2626105324943308 0.24069038384439911
0.08615718046775353 0.27181140858608965 0.24999826659630664
0.08872252036521985 0.29657147653007365 0.273792400848332
0.08564965015840617 0.3022149561135931 0.2801062220965066
0.08251942032176796 0.30642757814181437 0.2851925294797311
0.07602901580883945 0.29631503659021924 0.27698570710679593
0.07160630818156268 0.2921401682808808 0.27433632361771426
0.07149435465099689 0.30455925286609964 0.287379208894823
0.07019335940210944 0.31149518508422447 0.2954181538608416
0.07012321936950616 0.32358206220181984 0.308520533939362
0.06480093025873762 0.3106088731419392 0.2978012502554932
0.06399202261347588 0.31858495564038203 0.3072006956075098
0.05863322048592053 0.3034796718269739 0.29433271384922505
0.05604929203499757 0.30223369457918275 0.2948047119567776
0.05444372838903787 0.3068169414598712 0.30092420133513537
0.0524518319216687 0.3102145188591715 0.3058146502681558
0.05050783102703396 0.31508908474752867 0.31204005154754594
0.04870853149138152 0.32239730269814365 0.3205160638545288
0.0465159847831157 0.3287861729289489 0.32787264271665156
0.04388828352479053 0.33358946371587245 0.333393275339133
0.0411492031094963 0.33881717537949013 0.33905369675085073
0.03803277347632488 0.34183301216891276 0.342203990505182
0.03466209239747174 0.3427576176101521 0.34296898942036436
0.031619059758462735 0.3468243880261787 0.346604411025504
0.02832062911136607 0.34754504432649935 0.3466508014813951
0.025517252427418226 0.35353833620230174 0.3517378829233054
0.022938079007085842 0.36233262068039634 0.3594045095998587
0.02099586867077957 0.3821967861502463 0.3778291385661369
0.01915953582844456 0.40672522618604273 0.40061406822882256
0.016881397864555243 0.4263014878883304 0.4190378643120346
0.014676605457144666 0.44583600907377485 0.43651284746076796
0.01234603770188819 0.4593606987786891 0.44799693154695713
0.010097098738955881 0.47044747513853413 0.45705874752787196
0.00973611728865681 0.5786743211399468 0.5600536851797379
0.00827281440254097 0.6572439769139304 0.6338512357331294
0.007229907134111079 0.8123305663316165 0.7808926428402804
0.005031776308091437 0.8811767690427166 0.8446304678640418
0.0027445324773359703 0.9276591462207352 0.8869428859852901
0.0005720364111130954 0.9747935060333155 0.9300109895343239
-0.0019858258928400906 1.0095112910050719 0.9624791820714325
-0.003787549790526119 1.0607293356367873 1.0094711181005018
0.1730504924137732 0.10886762612316898 0.09789289648966715
0.21325110418367468 0.19922613581578158 0.17898808099218166
-0.0014199563723500373 -0.001748718390639549 -0.0015723659399721022
0.02774770750346315 0.0421861027779627 0.03799786055343849
0.05627261880872282 0.10124261419207688 0.09140115532227566
0.04746411352524364 0.09800825869104901 0.08870654085814776
0.0686826920828017 0.1589471171681641 0.1442276758879564
0.08064921050681666 0.2052908068063234 0.1867399031322728
0.08575107573739105 0.2367453782645534 0.21627685815614112
0.08865132345953249 0.2626105324943308 0.24069038384439911
0.08615718046775353 0.27181140858608965 0.24999826659630664
0.08872252036521985 0.29657147653007365 0.273792400848332
0.08564965015840617 0.3022149561135931 0.2801062220965066
0.08251942032176796 0.30642757814181437 0.2851925294797311
0.07602901580883945 0.29631503659021924 0.27698570710679593
0.07160630818156268 0.2921401682808808 0.27433632361771426
0.07149435465099689 0.30455925286609964 0.287379208894823
0.07019335940210944 0.31149518508422447 0.2954181538608416
0.07012321936950616 0.32358206220181984 0.308520533939362
0.06480093025873762 0.3106088731419392 0.2978012502554932
0.06399202261347588 0.31858495564038203 0.3072006956075098
0.05863322048592053 0.3034796718269739 0.29433271384922505
0.05604929203499757 0.30223369457918275 0.2948047119567776
0.05444372838903787 0.3068169414598712 0.30092420133513537
0.0524518319216687 0.3102145188591715 0.3058146502681558
0.05050783102703396 0.31508908474752867 0.31204005154754594
0.04870853149138152 0.32239730269814365 0.3205160638545288