# vtk DataFile Version 4.0
[MyVLM domain - lattices] 
ASCII
DATASET UNSTRUCTURED_GRID
POINTS 152 float
0.0018916144324157278 -0.008589829722843988 0.005355823743456331
0.0010688609733395774 -0.01282252314647802 0.00489007194609024
0.00045780959861706216 -0.01698359280079383 0.004449688179459738
-0.00013255382275044122 -0.02102616669937398 0.00390589271927792
-0.0007201482309470062 -0.02496992448609226 0.003312754942710924
-0.0011946371146526612 -0.028763705891814994 0.002529713165540772
-0.0014108622120167862 -0.03230359771387901 0.0012712682098671311
-0.0013224843579428829 -0.03567622847153903 -0.00022457002377678504
-0.0010167791708201568 -0.03900804426069042 -0.001610393742140299
-0.0006138083932142036 -0.0422144706469304 -0.0031185692940082
-0.00020084691410191335 -0.045334559835248714 -0.004641801627991256
0.0001698744379422134 -0.04841737337788592 -0.0060452952371451135
0.0004739400232210948 -0.051437716302274415 -0.007398272739683069
0.0007082255455298663 -0.054367609617737046 -0.008777605780709711
0.0008836440760600275 -0.057211074233522556 -0.01017224700285845
0.001017516815515788 -0.05998837172459684 -0.01152652818642791
0.0011275777072549662 -0.06271805974400503 -0.012789462598718514
0.0012277625198140337 -0.06540477571008677 -0.013948309037557487
0.00132638558954348 -0.06803695069283422 -0.015034852876908701
0.0014271324949937316 -0.07059754375120142 -0.016095913717502162
0.0015306083418583354 -0.07307530568319048 -0.017162398487813927
0.0016355657532635378 -0.07546998114940781 -0.018235008727062206
0.0017398364473795213 -0.07778845801734022 -0.01929482017485878
0.0018410131526058282 -0.08003870362063359 -0.020319942761918324
0.001936923789896676 -0.08222657359514048 -0.021294288260959394
0.0020259353317291845 -0.08435533861211804 -0.02220887057655647
0.0021071205190511294 -0.08642586364631002 -0.02306131321013274
0.002180316672546981 -0.08843689990879455 -0.023855047181052746
0.0022461021518325993 -0.09038544776802167 -0.02459831390926664
0.0023056987632523672 -0.09226720737544074 -0.025302927131574393
0.0023607022647827588 -0.09407748209372326 -0.025981790752983402
0.0024126938092907785 -0.09581239154728134 -0.02664556601780037
0.0024629658139780817 -0.09746964331306832 -0.027300551306581954
0.0025123806343549317 -0.09904882555421131 -0.027947878131836773
0.0025613283706516186 -0.10055135244653511 -0.028583661077419165
0.0026097549007438213 -0.10198017458156479 -0.029199793459739887
0.0026572361369983943 -0.10333934343971843 -0.029785143927834996
0.002703078927872171 -0.10463321351423593 -0.03032774860985455
0.0027464329900004744 -0.10586452227816759 -0.030820086360406593
0.0027864017842759935 -0.10703279876976798 -0.03126345113625209
0.0028221433614242725 -0.10813420683573127 -0.03166838268197647
0.0028529549202113143 -0.10916236013451722 -0.032052427326754236
0.002878337166053322 -0.11010941212418551 -0.03243714326738754
0.0028980365508205295 -0.11096570804978674 -0.03284905672508991
0.0029120651374179955 -0.11171934045821105 -0.033320883158404105
0.002920699186668212 -0.11235817894618791 -0.03388595057640472
0.0029244586304951574 -0.11287310214361537 -0.034569319737481355
0.002924070395798875 -0.11326097653993562 -0.035379599891135184
0.0029204190990956736 -0.11352653510388358 -0.03630378731264005
0.0029144889643634465 -0.11368279141173082 -0.037306127495043494
0.002907300946956263 -0.11374998659147419 -0.03833100839622988
0.006212993241944028 -0.00359793652343709 -0.008359290102243216
0.0072288922610571306 -0.006441237283120612 -0.01264236687056923
0.007974780507892725 -0.009729318906467391 -0.015481265539741298
0.008270023946844132 -0.013269666249721604 -0.017404917120131612
0.008140225139500825 -0.01697286654720954 -0.01865898116643968
0.007751519283975376 -0.020707410105609246 -0.01960477759150696
0.007318662739924205 -0.024312891343500835 -0.020683017108239103
0.0069707766105224795 -0.027838295975918456 -0.02175911257070392
0.006702226685381192 -0.03138474791379472 -0.022555228317047153
0.006460614097576536 -0.03484922394329641 -0.02335441830095519
0.006208498480286784 -0.03825629858617939 -0.024089164578809892
0.005928720355726676 -0.04164355184197582 -0.024656216950473535
0.00562110152420414 -0.04497678633581446 -0.02514953193120951
0.005297776270156929 -0.04822094529817662 -0.025665427203669385
0.004977662142563614 -0.051374480922388124 -0.02620815533174019
0.004680078492205027 -0.054453245522156364 -0.026734162441464746
0.0044193472589770496 -0.05747222913324066 -0.027202263748077472
0.0042022226504668725 -0.06043316828868466 -0.02760768816625281
0.004028605706719037 -0.06332222784921669 -0.027988447428734766
0.003894567528214928 -0.06612078212553478 -0.028395715196302226
0.003794542923454683 -0.06881665272139767 -0.028862951337633218
0.0037223892098821663 -0.07140922858855764 -0.029391834693990575
0.0036720478837599236 -0.07390553071565628 -0.02996307525761927
0.0036379885391020494 -0.07631406892054876 -0.030553292496118534
0.003615480687410345 -0.07864157584579824 -0.03114398862607281
0.003600729157216099 -0.08089246329370524 -0.03172304232028238
0.0035909263662617956 -0.08306893688123528 -0.0322843936959385
0.003584242976167935 -0.08517122899565842 -0.03282740427426405
0.00357976601221264 -0.08719790791666744 -0.03335600767447415
0.003577378730160166 -0.08914627959578114 -0.03387760573393777
0.0035774796054096774 -0.09101324742144631 -0.03440070632297422
0.003580588564800478 -0.09279648693062 -0.03493169585130639
0.0035870678637920984 -0.09449518447209246 -0.03547280980726027
0.0035969747054953923 -0.09611030223889243 -0.03602140458721635
0.0036100119296844893 -0.09764450157243548 -0.03657016821572982
0.0036255480079795204 -0.09910183666628274 -0.03710796188753743
0.0036426825552804717 -0.10048730760892989 -0.037621047972401955
0.0036603380175139954 -0.10180605610449418 -0.038095299754363786
0.003677362157174432 -0.1030614437461855 -0.03852148133198538
0.0036926294639041822 -0.10425346323646355 -0.03889961275509392
0.0037051326977571345 -0.10537858815947673 -0.03923938277161322
0.003714058455611533 -0.10643059793307628 -0.039557882290532885
0.003718842962038476 -0.10740168065956038 -0.03987657432439188
0.003719206248598144 -0.10828210036488009 -0.04022220824204581
0.003715164522496519 -0.10905976961847196 -0.040627993986027185
0.0037070218583473346 -0.10972229770225386 -0.04112797477447751
0.003695343396461056 -0.11026024180072752 -0.041748094529754164
0.003680913018392471 -0.11067010530428792 -0.04249796010779174
0.0036646790161518838 -0.11095623568211756 -0.04336562693517954
0.003647691596346039 -0.11113125717392781 -0.044316410198372624
0.0036310361855396924 -0.11121503517601607 -0.04529573016961556
0.005410766489344848 -0.0064412342861243895 -0.0065948844036113445
0.005892211109850776 -0.009789723064504482 -0.0093788921381727
0.006132458642509649 -0.013375839371091849 -0.011287870885110133
0.006047255650667177 -0.017090461197032458 -0.01262163089971563
0.005720055990603616 -0.020846807542045452 -0.013618601020698526
0.005325630843128663 -0.02451602599412803 -0.014632800340478785
0.005016871435172548 -0.02805417351795949 -0.01578496135634234
0.004834968294868498 -0.03154417555017112 -0.016847248303646284
0.004732241848104854 -0.034990553809861775 -0.01780723786126944
0.00464908530328423 -0.03835819975882582 -0.01876138994516184
0.004547585503985086 -0.04168143556220003 -0.01961540518162333
0.004411660012619469 -0.0449645130266914 -0.020357601827734665
0.004242349868979272 -0.048174815102748084 -0.02107759449062868
0.00405227310746894 -0.05129562031411923 -0.021821325048724614
0.003859297849485217 -0.054335328161469104 -0.022565716063612646
0.0036804214720396232 -0.05731035692934911 -0.023265658669221635
0.003527506244425096 -0.06022987846498346 -0.023895953422408352
0.003405829147614405 -0.06308848935207814 -0.024471446087428617
0.003315379723667389 -0.06587044054603626 -0.025035406808690232
0.003253134023982613 -0.06856064424689866 -0.025629288975890306
0.003214621311891553 -0.07115286634530804 -0.026270220663718438
0.0031948391851961662 -0.07365033963492373 -0.026949319844593814
0.0031888698585714084 -0.07606074506832362 -0.02764548327474882
0.0031922930777549615 -0.07839152643935189 -0.028338259298681473
0.003201436081938149 -0.08064800370322113 -0.029013031459572677
0.0032135028026517493 -0.08283317534790621 -0.029661561479418987
0.003226618152360912 -0.08494790764822321 -0.030281469287724145
0.0032398057236901635 -0.08699121980172422 -0.03087544961706675
0.003252904392775423 -0.08896065221010102 -0.0314502601582596
0.003266372004343082 -0.0908529088151058 -0.032014956756911725
0.0032809500730880004 -0.09266488458715044 -0.0325780704117032
0.0032973286136308236 -0.09439463113356089 -0.03314495428751029
0.0033159342695244357 -0.0960418661250293 -0.033716384077731074
0.0033368336138182735 -0.09760807367934127 -0.03428828220226181
0.0033597203855484335 -0.09909631771803182 -0.0348522306058701
0.0033839603409402744 -0.10051086885586515 -0.03539649587092413
0.003408672097906746 -0.10185658101177833 -0.03590774196474835
0.0034328265552422406 -0.10313752941805532 -0.036374772278663585
0.0034553512046890385 -0.10435525524948534 -0.03679335246973708
0.003475228953835527 -0.10550789497416502 -0.037168602549793754
0.0034915839677176984 -0.10659051565598844 -0.037514075649396135
0.0035037495424018335 -0.10759607600457659 -0.03784911755486451
0.0035113151685979642 -0.10851580790591171 -0.03819781846147382
0.003514151750190315 -0.10933883230725677 -0.03859006832096413
0.003512415433327221 -0.11005296517082205 -0.039059342502040365
0.0035065316976985676 -0.11064736244984343 -0.03963543477832264
0.0034971622838568268 -0.11111563999982467 -0.04033588544265678
0.003485158199815951 -0.11145831682537945 -0.041159268541586136
0.0034715024876191118 -0.11168397563546884 -0.04208200327604251
0.003457246657122113 -0.11180895688162959 -0.043059194624404745

CELLS 100 350
4 0 51 52 1
4 1 52 53 2
4 2 53 54 3
4 3 54 55 4
4 4 55 56 5
4 5 56 57 6
4 6 57 58 7
4 7 58 59 8
4 8 59 60 9
4 9 60 61 10
4 10 61 62 11
4 11 62 63 12
4 12 63 64 13
4 13 64 65 14
4 14 65 66 15
4 15 66 67 16
4 16 67 68 17
4 17 68 69 18
4 18 69 70 19
4 19 70 71 20
4 20 71 72 21
4 21 72 73 22
4 22 73 74 23
4 23 74 75 24
4 24 75 76 25
4 25 76 77 26
4 26 77 78 27
4 27 78 79 28
4 28 79 80 29
4 29 80 81 30
4 30 81 82 31
4 31 82 83 32
4 32 83 84 33
4 33 84 85 34
4 34 85 86 35
4 35 86 87 36
4 36 87 88 37
4 37 88 89 38
4 38 89 90 39
4 39 90 91 40
4 40 91 92 41
4 41 92 93 42
4 42 93 94 43
4 43 94 95 44
4 44 95 96 45
4 45 96 97 46
4 46 97 98 47
4 47 98 99 48
4 48 99 100 49
4 49 100 101 50
1 102
1 103
1 104
1 105
1 106
1 107
1 108
1 109
1 110
1 111
1 112
1 113
1 114
1 115
1 116
1 117
1 118
1 119
1 120
1 121
1 122
1 123
1 124
1 125
1 126
1 127
1 128
1 129
1 130
1 131
1 132
1 133
1 134
1 135
1 136
1 137
1 138
1 139
1 140
1 141
1 142
1 143
1 144
1 145
1 146
1 147
1 148
1 149
1 150
1 151

CELL_TYPES 100
9
9
9
9
9
9
9
9
9
9
9
9
9
9
9
9
9
9
9
9
9
9
9
9
9
9
9
9
9
9
9
9
9
9
9
9
9
9
9
9
9
9
9
9
9
9
9
9
9
9
1
1
1
1
1
1
1
1
1
1
1
1
1
1
1
1
1
1
1
1
1
1
1
1
1
1
1
1
1
1
1
1
1
1
1
1
1
1
1
1
1
1
1
1
1
1
1
1
1
1

CELL_DATA 100

VECTORS S float
-8.299302718097479e-18 1.30130145164221e-17 5.25533877552707e-18
4.3606898542e-22 -2.5014819852008e-19 -1.1671448321957998e-19
2.934254953317e-20 -2.6401704526662598e-17 -1.232767786370236e-17
2.0495876298e-22 7.619048104700599e-19 3.5597290048624e-19
-1.543737826947e-20 1.6607328963332268e-17 7.76127448881206e-18
1.703025221951e-20 -2.964435614637912e-17 -1.385880749556564e-17
3.499962245496e-20 -7.479084525214089e-17 -3.497409819016226e-17
8.534400726189e-20 -2.0576253714659507e-16 -9.624177083854679e-17
-4.280851594703e-20 1.1506600728954285e-16 5.383084894024914e-17
-8.315826505834999e-20 2.3567451320965027e-16 1.1027419787966272e-16
1.404645178212e-20 -4.034398220862103e-17 -1.888039832405879e-17
1.9693267738679998e-20 -5.874542564454703e-17 -2.7496417151835057e-17
-3.3017664922299997e-21 1.0575957211640219e-17 4.9510701536025394e-18
2.4881380467839997e-20 -9.570989670472653e-17 -4.4815550527230737e-17
-2.98224154684e-21 1.397248438380106e-17 6.54410484497607e-18
6.14061068382e-21 -3.248736170337252e-17 -1.5219396648153058e-17
-8.709933346259999e-21 5.328665143393951e-17 2.4966500562883647e-17
-4.754085130299999e-22 3.0678754860314297e-18 1.43787917885004e-18
1.0038006254e-21 -6.7635399346761995e-18 -3.17087212874944e-18
-1.0973257219599999e-21 8.36621165549381e-18 3.9231143712100596e-18
-1.4274346190599999e-21 1.117834486160174e-17 5.2427278178567795e-18
-8.445657052369999e-21 6.641969294803228e-17 3.11556639898616e-17
1.098672419863e-20 -8.595302769640847e-17 -4.032237536614116e-17
2.1991215159299997e-21 -2.137485814421004e-17 -1.001675929512878e-17
-4.84293689095e-21 4.852112763172443e-17 2.27354401662578e-17
-2.0043657287999998e-22 2.0658145959284097e-18 9.678587864808799e-19
-2.35886134668e-21 2.431900017009334e-17 1.1392446155881049e-17
5.27753602362e-21 -5.531175096540002e-17 -2.5908575938584467e-17
-7.9163205521e-22 8.466608953256239e-18 3.96547472913618e-18
-6.50037409149e-21 7.187660772403307e-17 3.3661749415320715e-17
1.52662088949e-21 -1.571742393394045e-17 -7.363177187733269e-18
9.940550921999999e-23 -1.04473162469225e-18 -4.8937516986944e-19
1.4451916180699998e-21 -1.620695478658916e-17 -7.59081359756653e-18
-7.15771992978e-21 8.0726408075307e-17 3.78047742989636e-17
2.34903060303e-21 -2.6821998283493087e-17 -1.255912761129908e-17
-3.8638249909e-21 4.521611842562786e-17 2.1168580483107478e-17
-1.8058027297599997e-21 2.1629428741285048e-17 1.012434534646463e-17
4.4643004424799996e-21 -5.558300369388904e-17 -2.6012514147098007e-17
-3.52577655896e-21 4.705066440785891e-17 2.201518036115481e-17
3.82088117677e-21 -5.4383662457638584e-17 -2.5441486845195258e-17
3.5347349966e-22 -5.6093262522596194e-18 -2.6236603230103197e-18
-1.2002059332099999e-21 1.724006372679956e-17 8.063973183297e-18
7.9128019884999995e-22 -8.23359451838627e-18 -3.8507650561525696e-18
-8.55663998649e-21 6.771409216122086e-17 3.166632910058374e-17
2.2118785308899997e-21 -1.2035329495514219e-17 -5.6279935891582194e-18
-4.7942446506099996e-21 2.023741144906548e-17 9.46259225560741e-18
1.1469459148739999e-20 -3.754032108531234e-17 -1.7553449289509228e-17
2.40087351991e-20 -5.716356081153552e-17 -2.6730578001914587e-17
1.3057870875955e-19 -2.1466843988568358e-16 -1.0039092091615511e-16
1.0796014830136e-19 -8.562224833154987e-17 -4.004625065413314e-17
-8.299302718097479e-18 1.30130145164221e-17 5.25533877552707e-18
4.3606898542e-22 -2.5014819852008e-19 -1.1671448321957998e-19
2.934254953317e-20 -2.6401704526662598e-17 -1.232767786370236e-17
2.0495876298e-22 7.619048104700599e-19 3.5597290048624e-19
-1.543737826947e-20 1.6607328963332268e-17 7.76127448881206e-18
1.703025221951e-20 -2.964435614637912e-17 -1.385880749556564e-17
3.499962245496e-20 -7.479084525214089e-17 -3.497409819016226e-17
8.534400726189e-20 -2.0576253714659507e-16 -9.624177083854679e-17
-4.280851594703e-20 1.1506600728954285e-16 5.383084894024914e-17
-8.315826505834999e-20 2.3567451320965027e-16 1.1027419787966272e-16
1.404645178212e-20 -4.034398220862103e-17 -1.888039832405879e-17
1.9693267738679998e-20 -5.874542564454703e-17 -2.7496417151835057e-17
-3.3017664922299997e-21 1.0575957211640219e-17 4.9510701536025394e-18
2.4881380467839997e-20 -9.570989670472653e-17 -4.4815550527230737e-17
-2.98224154684e-21 1.397248438380106e-17 6.54410484497607e-18
6.14061068382e-21 -3.248736170337252e-17 -1.5219396648153058e-17
-8.709933346259999e-21 5.328665143393951e-17 2.4966500562883647e-17
-4.754085130299999e-22 3.0678754860314297e-18 1.43787917885004e-18
1.0038006254e-21 -6.7635399346761995e-18 -3.17087212874944e-18
-1.0973257219599999e-21 8.36621165549381e-18 3.9231143712100596e-18
-1.4274346190599999e-21 1.117834486160174e-17 5.2427278178567795e-18
-8.445657052369999e-21 6.641969294803228e-17 3.11556639898616e-17
1.098672419863e-20 -8.595302769640847e-17 -4.032237536614116e-17
2.1991215159299997e-21 -2.137485814421004e-17 -1.001675929512878e-17
-4.84293689095e-21 4.852112763172443e-17 2.27354401662578e-17
-2.0043657287999998e-22 2.0658145959284097e-18 9.678587864808799e-19
-2.35886134668e-21 2.431900017009334e-17 1.1392446155881049e-17
5.27753602362e-21 -5.531175096540002e-17 -2.5908575938584467e-17
-7.9163205521e-22 8.466608953256239e-18 3.96547472913618e-18
-6.50037409149e-21 7.187660772403307e-17 3.3661749415320715e-17
1.52662088949e-21 -1.571742393394045e-17 -7.363177187733269e-18
9.940550921999999e-23 -1.04473162469225e-18 -4.8937516986944e-19
1.4451916180699998e-21 -1.620695478658916e-17 -7.59081359756653e-18
-7.15771992978e-21 8.0726408075307e-17 3.78047742989636e-17
2.34903060303e-21 -2.6821998283493087e-17 -1.255912761129908e-17
-3.8638249909e-21 4.521611842562786e-17 2.1168580483107478e-17
-1.8058027297599997e-21 2.1629428741285048e-17 1.012434534646463e-17
4.4643004424799996e-21 -5.558300369388904e-17 -2.6012514147098007e-17
-3.52577655896e-21 4.705066440785891e-17 2.201518036115481e-17
3.82088117677e-21 -5.4383662457638584e-17 -2.5441486845195258e-17
3.5347349966e-22 -5.6093262522596194e-18 -2.6236603230103197e-18
-1.2002059332099999e-21 1.724006372679956e-17 8.063973183297e-18
7.9128019884999995e-22 -8.23359451838627e-18 -3.8507650561525696e-18
-8.55663998649e-21 6.771409216122086e-17 3.166632910058374e-17
2.2118785308899997e-21 -1.2035329495514219e-17 -5.6279935891582194e-18
-4.7942446506099996e-21 2.023741144906548e-17 9.46259225560741e-18
1.1469459148739999e-20 -3.754032108531234e-17 -1.7553449289509228e-17
2.40087351991e-20 -5.716356081153552e-17 -2.6730578001914587e-17
1.3057870875955e-19 -2.1466843988568358e-16 -1.0039092091615511e-16
1.0796014830136e-19 -8.562224833154987e-17 -4.004625065413314e-17

SCALARS Gamma float
LOOKUP_TABLE default
2.9772677498894448e-5
0.004542085019024724
0.01980643266588129
-0.010410441890039833
0.029026134429981646
0.12137422659558288
0.2367278796891869
0.3273508465052347
0.383212909638109
0.4074157005745038
0.3999743377610681
0.3953601632141367
0.3856632287557977
0.396319073373928
0.3980053795898368
0.3935355367745644
0.3884100867336996
0.38412569968801596
0.37569732717731297
0.37149321982900957
0.3591297406023086
0.347208184575872
0.3402254437455298
0.330240568590688
0.31960233730576615
0.30832298353304644
0.29850050549161244
0.2922473397517692
0.28615141330594834
0.28096779681798906
0.27198685005991396
0.26446103014863365
0.2564783993391136
0.24953959470246947
0.2433423268491488
0.23787022377762493
0.23304698932242626
0.2292034343648626
0.2272120693300317
0.22526527861092666
0.2309656157456358
0.21130211440585978
0.16903578227218688
0.13597400026105566
0.11062430742235363
0.0884022417689027
0.07153476947439648
0.055101878863920144
0.040163896853114306
0.020973678143522006
2.9772677498894448e-5
0.004542085019024724
0.01980643266588129
-0.010410441890039833
0.029026134429981646
0.12137422659558288
0.2367278796891869
0.3273508465052347
0.383212909638109
0.4074157005745038
0.3999743377610681
0.3953601632141367
0.3856632287557977
0.396319073373928
0.3980053795898368
0.3935355367745644
0.3884100867336996
0.38412569968801596
0.37569732717731297
0.37149321982900957
0.3591297406023086
0.347208184575872
0.3402254437455298
0.330240568590688
0.31960233730576615
0.30832298353304644
0.29850050549161244
0.2922473397517692
0.28615141330594834
0.28096779681798906
0.27198685005991396
0.26446103014863365
0.2564783993391136
0.24953959470246947
0.2433423268491488
0.23787022377762493
0.23304698932242626
0.2292034343648626
0.2272120693300317
0.22526527861092666
0.2309656157456358
0.21130211440585978
0.16903578227218688
0.13597400026105566
0.11062430742235363
0.0884022417689027
0.07153476947439648
0.055101878863920144
0.040163896853114306
0.020973678143522006

VECTORS Ftot float
0.002794291146589676 0.013305762227612074 -0.028534299179768786
-0.023607658640781924 0.0701176622540052 -0.15036781195366608
-0.17942845221594195 0.15005681382337036 -0.3217978757138322
0.1305911561329477 0.018066225334667375 -0.03874314525767932
-0.4111920654032367 0.17259629283751296 -0.37013394444434106
-2.0266159070873457 0.454413064506522 -0.9744919616041934
-4.5022148850467065 0.745566862220812 -1.5988732957351286
-6.959003247890816 0.9448029294698936 -2.026136420765892
-8.983812580943198 1.0265945842238848 -2.2015391904257546
-10.416816071781446 1.070405730282868 -2.295492496344699
-11.054682857542883 1.0696901701429036 -2.293957972672505
-11.729406947303332 1.0460040221498692 -2.243162864381229
-12.209151925831597 0.9679393937708908 -2.0757527285755026
-13.323514647295697 0.8342715577439398 -1.7891011291661691
-14.141234971743629 0.686919792895421 -1.4731042496992237
-14.712299698628145 0.599327741750562 -1.2852624898374463
-15.223671630264342 0.5216626959979875 -1.1187092617393588
-15.730166055387174 0.47734464210195116 -1.0236688884557932
-16.026490998913104 0.44175175907949066 -0.9473397044932393
-16.465569916320636 0.38496595114480303 -0.8255621463905751
-16.496546245259612 0.36383336054929 -0.7802431596102022
-16.49211851002559 0.3536596843289842 -0.7584256405487328
-16.676763843632404 0.35331312920203833 -0.7576824506806593
-16.67470052322612 0.34544681686159256 -0.7408130894276836
-16.592997764744155 0.34168912982161176 -0.7327547035653357
-16.432546050953196 0.33728543056815363 -0.7233109400404519
-16.306549671192776 0.34288712221602236 -0.735323806545867
-16.340939771608877 0.34583187050017855 -0.7416388396203987
-16.355177666934612 0.34637809490446586 -0.742810221635544
-16.394859262282964 0.34240576942739265 -0.734291542159444
-16.18301651952714 0.33861240486808547 -0.726156645609994
-16.02701555737847 0.33633866644188026 -0.7212805978195685
-15.814888163419644 0.3192226264598679 -0.6845751316264247
-15.639371900091604 0.323353029344681 -0.6934328091973991
-15.486002463756044 0.3273152384345134 -0.7019297940110505
-15.35675696083144 0.3295538904802308 -0.7067305988157044
-15.249306435051562 0.3345961848058885 -0.7175438338923235
-15.188021392740806 0.33731111665717495 -0.723366024036119
-15.23436252696134 0.33353336773688325 -0.715264615332606
-15.270257320849009 0.331921294528925 -0.7118075131817715
-15.81672318642752 0.3263463855052346 -0.6998520821992562
-14.607035665160282 0.3296465430254336 -0.7069292928400945
-11.787351982651547 0.38229269012409756 -0.8198293196313438
-9.558347778838039 0.4203497415399465 -0.90144292976682
-7.834657787694757 0.5105610147677476 -1.0949016295118181
-6.304000902369233 0.5476841043045697 -1.174512351934229
-5.133406351968284 0.5706700375735038 -1.2238058449038292
-3.977714696538518 0.5955763731451441 -1.2772176539017455
-2.9162167228378446 0.6136080504444414 -1.3158867106584835
-1.5354344522532632 0.6444678697442533 -1.3820658067126046
0.002794291146589676 0.013305762227612074 -0.028534299179768786
-0.023607658640781924 0.0701176622540052 -0.15036781195366608
-0.17942845221594195 0.15005681382337036 -0.3217978757138322
0.1305911561329477 0.018066225334667375 -0.03874314525767932
-0.4111920654032367 0.17259629283751296 -0.37013394444434106
-2.0266159070873457 0.454413064506522 -0.9744919616041934
-4.5022148850467065 0.745566862220812 -1.5988732957351286
-6.959003247890816 0.9448029294698936 -2.026136420765892
-8.983812580943198 1.0265945842238848 -2.2015391904257546
-10.416816071781446 1.070405730282868 -2.295492496344699
-11.054682857542883 1.0696901701429036 -2.293957972672505
-11.729406947303332 1.0460040221498692 -2.243162864381229
-12.209151925831597 0.9679393937708908 -2.0757527285755026
-13.323514647295697 0.8342715577439398 -1.7891011291661691
-14.141234971743629 0.686919792895421 -1.4731042496992237
-14.712299698628145 0.599327741750562 -1.2852624898374463
-15.223671630264342 0.5216626959979875 -1.1187092617393588
-15.730166055387174 0.47734464210195116 -1.0236688884557932
-16.026490998913104 0.44175175907949066 -0.9473397044932393
-16.465569916320636 0.38496595114480303 -0.8255621463905751
-16.496546245259612 0.36383336054929 -0.7802431596102022
-16.49211851002559 0.3536596843289842 -0.7584256405487328
-16.676763843632404 0.35331312920203833 -0.7576824506806593
-16.67470052322612 0.34544681686159256 -0.7408130894276836
-16.592997764744155 0.34168912982161176 -0.7327547035653357
-16.432546050953196 0.33728543056815363 -0.7233109400404519
-16.306549671192776 0.34288712221602236 -0.735323806545867
-16.340939771608877 0.34583187050017855 -0.7416388396203987
-16.355177666934612 0.34637809490446586 -0.742810221635544
-16.394859262282964 0.34240576942739265 -0.734291542159444
-16.18301651952714 0.33861240486808547 -0.726156645609994
-16.02701555737847 0.33633866644188026 -0.7212805978195685
-15.814888163419644 0.3192226264598679 -0.6845751316264247
-15.639371900091604 0.323353029344681 -0.6934328091973991
-15.486002463756044 0.3273152384345134 -0.7019297940110505
-15.35675696083144 0.3295538904802308 -0.7067305988157044
-15.249306435051562 0.3345961848058885 -0.7175438338923235
-15.188021392740806 0.33731111665717495 -0.723366024036119
-15.23436252696134 0.33353336773688325 -0.715264615332606
-15.270257320849009 0.331921294528925 -0.7118075131817715
-15.81672318642752 0.3263463855052346 -0.6998520821992562
-14.607035665160282 0.3296465430254336 -0.7069292928400945
-11.787351982651547 0.38229269012409756 -0.8198293196313438
-9.558347778838039 0.4203497415399465 -0.90144292976682
-7.834657787694757 0.5105610147677476 -1.0949016295118181
-6.304000902369233 0.5476841043045697 -1.174512351934229
-5.133406351968284 0.5706700375735038 -1.2238058449038292
-3.977714696538518 0.5955763731451441 -1.2772176539017455
-2.9162167228378446 0.6136080504444414 -1.3158867106584835
-1.5354344522532632 0.6444678697442533 -1.3820658067126046

VECTORS D float
0.00294350198292336 0.01338051547357138 -0.0284837637459786
0.010508359591756097 0.06924064796426543 -0.14836068759643123
0.01763358727753166 0.14597518045128066 -0.31258735105652075
0.002105752017264044 0.020463528407422566 -0.04380022272436212
0.015165648377187126 0.16593604576548646 -0.3550345223614238
0.035507744227585104 0.4244426063594206 -0.9078503388406155
0.05354807289730874 0.683247086779522 -1.461045619993773
0.0636109989717214 0.8532077622751559 -1.8240807866664317
0.0654547720579044 0.912841344044244 -1.9511898622093609
0.06557997904193412 0.9424204047908447 -2.0140615020660664
0.06357068107282957 0.9373981992597753 -2.003002409257092
0.06014579292155294 0.9090657171241288 -1.942153689669165
0.05353519411456443 0.8286660266228807 -1.770073823982611
0.04325618681658077 0.6854272027662537 -1.463801955570436
0.03277686180093356 0.5324271976693946 -1.1367838891118411
0.026500783379774146 0.44289696917099475 -0.9453982727717448
0.02114594679672822 0.36451001516035336 -0.7779758277825382
0.017917596462052356 0.32105246462685877 -0.6849952918634933
0.015461463617725026 0.28912526609017564 -0.6167056518514239
0.012009081859319147 0.23487326976882675 -0.5008740819920044
0.01075514020090737 0.2201608903243454 -0.4694157488857422
0.010104431717705295 0.21643736664797225 -0.4614126696626329
0.009853403721825948 0.2206497442725948 -0.4703444465219675
0.009419186491920244 0.2156124276649999 -0.46009534678283304
0.009151582548896047 0.21699306864774479 -0.463096556808516
0.008880169739271608 0.21809935379718426 -0.46551320793830575
0.008988366202045734 0.22887717348518272 -0.48857310734215886
0.008915554298714113 0.23595307271547306 -0.503730138481445
0.00872572602085888 0.24107988246260303 -0.5147232861544528
0.008334330976172989 0.24201113550905584 -0.5167552363646913
0.007976131274724383 0.2450629419001324 -0.5231092330945418
0.007578481547338706 0.2501955349211536 -0.5341227966589337
0.0067017080672067755 0.24133968561626892 -0.515277003902994
0.006349233586962139 0.2542019805062421 -0.5428088844964991
0.005862838908335504 0.2673332845508694 -0.5709313058420536
0.005209361653096541 0.27908012432776585 -0.5961145970015015
0.004477971974172137 0.29386602782767973 -0.6278081203807226
0.0035893840946875587 0.30633011171810903 -0.6545592483219319
0.002554283653018618 0.31207012855872046 -0.6669533314661479
0.0015106140434130617 0.31985091115564435 -0.6837123287259846
0.0004534401968763391 0.32318060465576415 -0.6909527402379709
-0.0006651792577150656 0.33567666324144585 -0.717647210958106
-0.0018862145402625274 0.3933646265370536 -0.8410812599776641
-0.003199334126389665 0.4339811198484745 -0.9280098374477525
-0.005111176279153733 0.5254084791048875 -1.1235754573791554
-0.006750669722480217 0.5624675939325762 -1.2029389180112102
-0.008219692755811091 0.5848776419090764 -1.25084183662066
-0.009713364702919718 0.608312491872345 -1.3008899891604242
-0.011080323146872925 0.6243107874949642 -1.3349939256117402
-0.012621189566497172 0.6513395624968986 -1.392652731349116
0.00294350198292336 0.01338051547357138 -0.0284837637459786
0.010508359591756097 0.06924064796426543 -0.14836068759643123
0.01763358727753166 0.14597518045128066 -0.31258735105652075
0.002105752017264044 0.020463528407422566 -0.04380022272436212
0.015165648377187126 0.16593604576548646 -0.3550345223614238
0.035507744227585104 0.4244426063594206 -0.9078503388406155
0.05354807289730874 0.683247086779522 -1.461045619993773
0.0636109989717214 0.8532077622751559 -1.8240807866664317
0.0654547720579044 0.912841344044244 -1.9511898622093609
0.06557997904193412 0.9424204047908447 -2.0140615020660664
0.06357068107282957 0.9373981992597753 -2.003002409257092
0.06014579292155294 0.9090657171241288 -1.942153689669165
0.05353519411456443 0.8286660266228807 -1.770073823982611
0.04325618681658077 0.6854272027662537 -1.463801955570436
0.03277686180093356 0.5324271976693946 -1.1367838891118411
0.026500783379774146 0.44289696917099475 -0.9453982727717448
0.02114594679672822 0.36451001516035336 -0.7779758277825382
0.017917596462052356 0.32105246462685877 -0.6849952918634933
0.015461463617725026 0.28912526609017564 -0.6167056518514239
0.012009081859319147 0.23487326976882675 -0.5008740819920044
0.01075514020090737 0.2201608903243454 -0.4694157488857422
0.010104431717705295 0.21643736664797225 -0.4614126696626329