# vtk DataFile Version 4.0
[MyVLM domain - lattices] 
ASCII
DATASET UNSTRUCTURED_GRID
POINTS 152 float
0.0018916144324157278 0.006766065024163925 0.007529301875155148
0.0010688609733395774 0.007042388542775279 0.01177856812573152
0.00045780959861706216 0.007331257357713945 0.01595289362067512
-0.00013255382275044122 0.007497708963046387 0.020028480828805838
-0.0007201482309470062 0.0075984086349021795 0.02401532136717461
-0.0011946371146526612 0.007486046249382984 0.02788744048640666
-0.0014108622120167862 0.00686141566433594 0.03159208007084673
-0.0013224843579428829 0.0059739537596023955 0.03517322257239461
-0.0010167791708201568 0.005187747557557818 0.03869506635642088
-0.0006138083932142036 0.004259274679968546 0.04211467185723668
-0.00020084691410191335 0.003300981469532886 0.04545186639894167
0.0001698744379422134 0.002454135035700938 0.048731559184418634
0.0004739400232210948 0.0016461893462997052 0.05194095839085211
0.0007082255455298663 0.0007965821084993412 0.05506585871238848
0.0008836440760600275 -8.310893095163508e-5 0.05810830161815528
0.001017516815515788 -0.0009345428921254308 0.06107857417936209
0.0011275777072549662 -0.001704285142725675 0.06398609836338698
0.0012277625198140337 -0.0023789827688261663 0.06683322864922622
0.00132638558954348 -0.0029919471767523363 0.0696140913371793
0.0014271324949937316 -0.0035922458006543943 0.0723200345147314
0.0015306083418583354 -0.00421226942674449 0.07494534681234695
0.0016355657532635378 -0.004852753275504152 0.0774898985908183
0.0017398364473795213 -0.005493864522945936 0.07995718691211806
0.0018410131526058282 -0.006112662146155213 0.08235125689755114
0.001936923789896676 -0.006692285513678113 0.08467508153135464
0.0020259353317291845 -0.007223317102966726 0.0869303213768452
0.0021071205190511294 -0.007703266318509599 0.08911741559320949
0.002180316672546981 -0.008135728904698252 0.09123573015369557
0.0022461021518325993 -0.00852934195634774 0.09328374210545262
0.0023056987632523672 -0.008896486393915784 0.09525926835815791
0.0023607022647827588 -0.009250685645611052 0.09715992436654661
0.0024126938092907785 -0.00960311280763306 0.09898374001230067
0.0024629658139780817 -0.009960368649069903 0.10072955140173645
0.0025123806343549317 -0.01032363900693518 0.10239714943979372
0.0025613283706516186 -0.01068885192423009 0.10398725212235566
0.0026097549007438213 -0.011047511511263352 0.10550135750399996
0.0026572361369983943 -0.011387951995112739 0.10694152257524361
0.002703078927872171 -0.011697635112208586 0.1083099581702452
0.0027464329900004744 -0.011968678623050785 0.10960805414049703
0.0027864017842759935 -0.012202438607938437 0.1108355713724543
0.0028221433614242725 -0.012409960830084846 0.11199056220004001
0.0028529549202113143 -0.012609634027068394 0.11306978419267794
0.002878337166053322 -0.012824051415949724 0.11406925355661927
0.0028980365508205295 -0.013081012755640825 0.11498406844431068
0.0029120651374179955 -0.013414804190891132 0.1158081832833683
0.002920699186668212 -0.013860353825852056 0.1165354393066453
0.0029244586304951574 -0.014443925598978087 0.11716120547317244
0.002924070395798875 -0.01517454209432365 0.11768389085794521
0.0029204190990956736 -0.016038575271564614 0.11810589845216699
0.0029144889643634465 -0.016998554031244586 0.11843383542166872
0.002907300946956263 -0.01799619636813667 0.11867797845646168
0.006212993241944028 -0.007607518581711406 0.004994851275970449
0.0072288922610571306 -0.011331791794427403 0.008538704383879714
0.007974780507892725 -0.013556591831929869 0.012269802239571454
0.008270023946844132 -0.01483624395792843 0.01609040234296533
0.008140225139500825 -0.015428201970312083 0.019955108643207643
0.007751519283975376 -0.0157111329391557 0.023797151919138376
0.007318662739924205 -0.01614690632826549 0.027535092122723134
0.0069707766105224795 -0.01659447339272424 0.031193799953285896
0.006702226685381192 -0.016762659435822603 0.03482461736595612
0.006460614097576536 -0.01694810797901122 0.0383752381042497
0.006208498480286784 -0.017080059507027567 0.041858138979849246
0.005928720355726676 -0.017050306723840458 0.045292399858554586
0.00562110152420414 -0.016957317045954688 0.04866065827811525
0.005297776270156929 -0.01690203241813949 0.05194511545018325
0.004977662142563614 -0.01688890957208936 0.05514498553271507
0.004680078492205027 -0.01687230358967044 0.058268316956309935
0.0044193472589770496 -0.016809052383146676 0.0613227203615794
0.0042022226504668725 -0.016694155804900707 0.06430907740945595
0.004028605706719037 -0.01656745055076654 0.06722036381564178
0.003894567528214928 -0.016482567155634325 0.07004712306984592
0.003794542923454683 -0.01647457191390714 0.07278317203825165
0.0037223892098821663 -0.0165452242688914 0.075428200483533
0.0036720478837599236 -0.016674308089511248 0.07798577305504421
0.0036379885391020494 -0.01683732033182603 0.08046021030054147
0.003615480687410345 -0.017014875124202584 0.08285493047223828
0.003600729157216099 -0.01719426918820812 0.0851721735008658
0.0035909263662617956 -0.01736915170290355 0.08741305920750521
0.003584242976167935 -0.017538853535813064 0.08957770557826569
0.00357976601221264 -0.017707497161259394 0.09166538570969686
0.003577378730160166 -0.017882839782679346 0.09367473179753795
0.0035774796054096774 -0.018073797737678157 0.09560417165090007
0.003580588564800478 -0.018287064050836303 0.09745252510896713
0.0035870678637920984 -0.018524981537438805 0.09921937907019356
0.0035969747054953923 -0.0187847796730793 0.10090522205278292
0.0036100119296844893 -0.019058795430562922 0.10251140525518354
0.0036255480079795204 -0.019335355224783322 0.10403998704541136
0.0036426825552804717 -0.019600061874719434 0.1054935060349264
0.0036603380175139954 -0.019838110433419563 0.1068745727353243
0.003677362157174432 -0.020039821579007005 0.10818489387220684
0.0036926294639041822 -0.0202052163239116 0.10942446574051576
0.0037051326977571345 -0.020344448577892017 0.11059149793200083
0.003714058455611533 -0.0204754297933814 0.11168283217433451
0.003718842962038476 -0.02062065343333118 0.11269450226310886
0.003719206248598144 -0.02080815311772993 0.11362156511475298
0.003715164522496519 -0.021072733215750795 0.11445788377993509
0.0037070218583473346 -0.021450071378171957 0.11519716732621468
0.003695343396461056 -0.021967357108577817 0.11583462151051775
0.003680913018392471 -0.022634658493060778 0.11636847105762219
0.0036646790161518838 -0.023439457493018546 0.11680092323547904
0.003647691596346039 -0.02434540405893997 0.11713838753856728
0.0036310361855396924 -0.025295298061908528 0.11739094989291485
0.005410766489344848 -0.005376184695184653 0.007488567122554645
0.005892211109850776 -0.007536438122322827 0.01126962270209502
0.006132458642509649 -0.00879369263110182 0.015132748524636414
0.006047255650667177 -0.009462152523346623 0.01902254189431242
0.005720055990603616 -0.009791693730514773 0.022894942942577417
0.005325630843128663 -0.010153331986068081 0.026684531585354745
0.005016871435172548 -0.010673596217378858 0.030368997358908557
0.004834968294868498 -0.011113712146060039 0.03399044261081769
0.004732241848104854 -0.011460660000871889 0.037551163078034376
0.00464908530328423 -0.011815530788576866 0.0410333336885594
0.004547585503985086 -0.01207949777342128 0.04445438026232147
0.004411660012619469 -0.0122403183659231 0.04781646149816003
0.004242349868979272 -0.012391909617185434 0.05110301728601701
0.00405227310746894 -0.012582419099142357 0.05430555790990484
0.003859297849485217 -0.012787661413544555 0.057428347908074044
0.0036804214720396232 -0.012960361994162808 0.06047972306205214
0.003527506244425096 -0.013074111559461747 0.06346434004071491
0.003405829147614405 -0.013144468626572531 0.06637945545771234
0.003315379723667389 -0.013216780762076163 0.06921707331354673
0.003253134023982613 -0.013334491554502911 0.07196953333142139
0.003214621311891553 -0.013515551406330534 0.07463367037106491
0.0031948391851961662 -0.013750651859207253 0.07721112576483351
0.0031888698585714084 -0.014017676491639125 0.07970579923455329
0.0031922930777549615 -0.014295191753489894 0.08212147009340565
0.003201436081938149 -0.014567879444234618 0.08446083935343902
0.0032135028026517493 -0.014827105761851419 0.08672542938689597
0.003226618152360912 -0.015070376367419713 0.08891568001302723
0.0032398057236901635 -0.015300515369032923 0.09103109326537949
0.003252904392775423 -0.01552460489775997 0.09307042037316438
0.003266372004343082 -0.015752135575074922 0.09503198788375233
0.0032809500730880004 -0.015992047977348437 0.09691421933230611
0.0032973286136308236 -0.01624995227769104 0.0987161254939399
0.0033159342695244357 -0.016526661410944925 0.10043756302630746
0.0033368336138182735 -0.01681790203026149 0.10207928543575612
0.0033597203855484335 -0.017114851925191524 0.10364284831601756
0.0033839603409402744 -0.017405214350610546 0.10513041991503211
0.003408672097906746 -0.017675013003967288 0.10654446463203011
0.0034328265552422406 -0.017912513721567384 0.10788705151666697
0.0034553512046890385 -0.01811327886746813 0.10915896304388989
0.003475228953835527 -0.018282674267929268 0.11035925307375553
0.0034915839677176984 -0.01843490374637169 0.11148541708896552
0.0035037495424018335 -0.018590241890394484 0.11253388013270343
0.0035113151685979642 -0.018773935478096734 0.11350019051681444
0.003514151750190315 -0.019017309493371767 0.11437882480146791
0.003512415433327221 -0.019355446474813933 0.11516359698855785
0.0035065316976985676 -0.019819570610634937 0.11584900141125189
0.0034971622838568268 -0.020428064312277193 0.1164317967544422
0.003485158199815951 -0.021179433165515783 0.116912246523677
0.0034715024876191118 -0.022048964244835594 0.11729470827449685
0.003457246657122113 -0.022989607095240845 0.1175874782715721

CELLS 100 350
4 0 51 52 1
4 1 52 53 2
4 2 53 54 3
4 3 54 55 4
4 4 55 56 5
4 5 56 57 6
4 6 57 58 7
4 7 58 59 8
4 8 59 60 9
4 9 60 61 10
4 10 61 62 11
4 11 62 63 12
4 12 63 64 13
4 13 64 65 14
4 14 65 66 15
4 15 66 67 16
4 16 67 68 17
4 17 68 69 18
4 18 69 70 19
4 19 70 71 20
4 20 71 72 21
4 21 72 73 22
4 22 73 74 23
4 23 74 75 24
4 24 75 76 25
4 25 76 77 26
4 26 77 78 27
4 27 78 79 28
4 28 79 80 29
4 29 80 81 30
4 30 81 82 31
4 31 82 83 32
4 32 83 84 33
4 33 84 85 34
4 34 85 86 35
4 35 86 87 36
4 36 87 88 37
4 37 88 89 38
4 38 89 90 39
4 39 90 91 40
4 40 91 92 41
4 41 92 93 42
4 42 93 94 43
4 43 94 95 44
4 44 95 96 45
4 45 96 97 46
4 46 97 98 47
4 47 98 99 48
4 48 99 100 49
4 49 100 101 50
1 102
1 103
1 104
1 105
1 106
1 107
1 108
1 109
1 110
1 111
1 112
1 113
1 114
1 115
1 116
1 117
1 118
1 119
1 120
1 121
1 122
1 123
1 124
1 125
1 126
1 127
1 128
1 129
1 130
1 131
1 132
1 133
1 134
1 135
1 136
1 137
1 138
1 139
1 140
1 141
1 142
1 143
1 144
1 145
1 146
1 147
1 148
1 149
1 150
1 151

CELL_TYPES 100
9
9
9
9
9
9
9
9
9
9
9
9
9
9
9
9
9
9
9
9
9
9
9
9
9
9
9
9
9
9
9
9
9
9
9
9
9
9
9
9
9
9
9
9
9
9
9
9
9
9
1
1
1
1
1
1
1
1
1
1
1
1
1
1
1
1
1
1
1
1
1
1
1
1
1
1
1
1
1
1
1
1
1
1
1
1
1
1
1
1
1
1
1
1
1
1
1
1
1
1

CELL_DATA 100

VECTORS S float
-1.99915768117637e-18 -6.686602700407399e-19 -6.3730087834586e-19
8.2772791767219e-19 5.253232176213e-19 -1.3163120022601398e-18
-7.834563933156999e-19 -1.0741812664511699e-18 4.0250345753767394e-18
2.4494529782124997e-19 1.74829560863842e-18 -7.56446581865902e-18
-1.3195191156153e-19 -1.9083872426953497e-18 8.08276212268187e-18
-1.37059744284e-19 -3.78254127184333e-18 1.5476594941671838e-17
5.4043590938019995e-20 2.9745123379859998e-18 -1.174957530122588e-17
-6.031629889970999e-20 -9.67243704407257e-18 3.691338729745022e-17
-2.3296117250589998e-20 8.838897404860109e-18 -3.2646572148846486e-17
1.2553019114606999e-19 -1.2329634247394e-17 4.4076349833902456e-17
1.0775899586536e-19 -6.75335488684446e-18 2.347649110179414e-17
3.5941748376567e-19 -1.765788984332967e-17 5.992618965947542e-17
3.755936295637e-19 -1.572518392177572e-17 5.229260197210393e-17
-5.096305149103599e-19 1.914665956623972e-17 -6.258620670951687e-17
9.198318527138e-20 -3.27072175920055e-18 1.053527866935074e-17
1.8921330754533998e-19 -6.45161023312071e-18 2.047730908748113e-17
3.3232838972861e-19 -1.118789889138484e-17 3.5134988332746056e-17
-2.5482857786458e-19 8.59033598590414e-18 -2.672510629068742e-17
-4.6588441022383e-19 1.564345443324973e-17 -4.8263658799243947e-17
2.6770914199209996e-19 -8.730539148098239e-18 2.6737307973992158e-17
-7.242805235631e-20 2.3831740601069298e-18 -7.2487433625137e-18
1.19797314354348e-18 -4.0498203077158016e-17 1.2241085698777025e-16
4.1869128913239995e-20 -1.4448663285950999e-18 4.34178075468694e-18
-1.13323935895077e-18 3.9903068294988316e-17 -1.1952186680475172e-16
2.2776483990493997e-19 -8.259954959672259e-18 2.4683994801509438e-17
-1.656515888818e-19 6.220320589348099e-18 -1.8564429349617378e-17
1.1768061135843e-19 -4.63641739433186e-18 1.383350776817569e-17
2.557310389792e-19 -1.0695260431681779e-17 3.193628358739933e-17
2.3735348582301e-19 -1.067344532270785e-17 3.192971089115588e-17
9.614430061210999e-20 -4.70858316381452e-18 1.412560152290184e-17
6.714239247686999e-20 -3.60082791276888e-18 1.085659685209543e-17
-1.6750700143884998e-19 9.98948808066017e-18 -3.025844827970154e-17
-5.870527048240999e-20 3.9450079218626696e-18 -1.201238986949146e-17
-9.129727075325e-20 6.70371261097941e-18 -2.0538433727259718e-17
-1.0219422336041e-19 8.13536807066499e-18 -2.508213219022264e-17
-4.3135958760569996e-20 3.70335222886745e-18 -1.1490403999681499e-17
-1.4109466912015998e-19 1.279897385399418e-17 -3.996176844993159e-17
1.4521262214416998e-19 -1.3820270259259859e-17 4.341607211641192e-17
-4.871624423665e-20 4.90334135304094e-18 -1.549499419347912e-17
2.1119940417519999e-19 -2.203320956687835e-17 7.001158519358253e-17
-4.562838979291e-20 4.99654893503408e-18 -1.596248195113927e-17
-4.322584147202e-20 4.7483472638878e-18 -1.5244990909166468e-17
-9.609978881e-22 8.855073918814999e-20 -2.8559013688784996e-19
7.417531145622e-20 -6.01039564930308e-18 1.9463676269962298e-17
-1.1942041109414e-19 7.42470529397898e-18 -2.413121560415548e-17
-3.0101335281169e-19 1.386032783759573e-17 -4.5191879344599946e-17
1.8337355214107998e-19 -6.4629162315697894e-18 2.1130900394001398e-17
-1.1957444664266e-19 3.1217749016027497e-18 -1.023093809168802e-17
1.4879038567667998e-19 -2.7845281431292397e-18 9.1435845085196e-18
-6.514758895521299e-19 6.13053716243564e-18 -2.0159075668455078e-17
-1.99915768117637e-18 -6.686602700407399e-19 -6.3730087834586e-19
8.2772791767219e-19 5.253232176213e-19 -1.3163120022601398e-18
-7.834563933156999e-19 -1.0741812664511699e-18 4.0250345753767394e-18
2.4494529782124997e-19 1.74829560863842e-18 -7.56446581865902e-18
-1.3195191156153e-19 -1.9083872426953497e-18 8.08276212268187e-18
-1.37059744284e-19 -3.78254127184333e-18 1.5476594941671838e-17
5.4043590938019995e-20 2.9745123379859998e-18 -1.174957530122588e-17
-6.031629889970999e-20 -9.67243704407257e-18 3.691338729745022e-17
-2.3296117250589998e-20 8.838897404860109e-18 -3.2646572148846486e-17
1.2553019114606999e-19 -1.2329634247394e-17 4.4076349833902456e-17
1.0775899586536e-19 -6.75335488684446e-18 2.347649110179414e-17
3.5941748376567e-19 -1.765788984332967e-17 5.992618965947542e-17
3.755936295637e-19 -1.572518392177572e-17 5.229260197210393e-17
-5.096305149103599e-19 1.914665956623972e-17 -6.258620670951687e-17
9.198318527138e-20 -3.27072175920055e-18 1.053527866935074e-17
1.8921330754533998e-19 -6.45161023312071e-18 2.047730908748113e-17
3.3232838972861e-19 -1.118789889138484e-17 3.5134988332746056e-17
-2.5482857786458e-19 8.59033598590414e-18 -2.672510629068742e-17
-4.6588441022383e-19 1.564345443324973e-17 -4.8263658799243947e-17
2.6770914199209996e-19 -8.730539148098239e-18 2.6737307973992158e-17
-7.242805235631e-20 2.3831740601069298e-18 -7.2487433625137e-18
1.19797314354348e-18 -4.0498203077158016e-17 1.2241085698777025e-16
4.1869128913239995e-20 -1.4448663285950999e-18 4.34178075468694e-18
-1.13323935895077e-18 3.9903068294988316e-17 -1.1952186680475172e-16
2.2776483990493997e-19 -8.259954959672259e-18 2.4683994801509438e-17
-1.656515888818e-19 6.220320589348099e-18 -1.8564429349617378e-17
1.1768061135843e-19 -4.63641739433186e-18 1.383350776817569e-17
2.557310389792e-19 -1.0695260431681779e-17 3.193628358739933e-17
2.3735348582301e-19 -1.067344532270785e-17 3.192971089115588e-17
9.614430061210999e-20 -4.70858316381452e-18 1.412560152290184e-17
6.714239247686999e-20 -3.60082791276888e-18 1.085659685209543e-17
-1.6750700143884998e-19 9.98948808066017e-18 -3.025844827970154e-17
-5.870527048240999e-20 3.9450079218626696e-18 -1.201238986949146e-17
-9.129727075325e-20 6.70371261097941e-18 -2.0538433727259718e-17
-1.0219422336041e-19 8.13536807066499e-18 -2.508213219022264e-17
-4.3135958760569996e-20 3.70335222886745e-18 -1.1490403999681499e-17
-1.4109466912015998e-19 1.279897385399418e-17 -3.996176844993159e-17
1.4521262214416998e-19 -1.3820270259259859e-17 4.341607211641192e-17
-4.871624423665e-20 4.90334135304094e-18 -1.549499419347912e-17
2.1119940417519999e-19 -2.203320956687835e-17 7.001158519358253e-17
-4.562838979291e-20 4.99654893503408e-18 -1.596248195113927e-17
-4.322584147202e-20 4.7483472638878e-18 -1.5244990909166468e-17
-9.609978881e-22 8.855073918814999e-20 -2.8559013688784996e-19
7.417531145622e-20 -6.01039564930308e-18 1.9463676269962298e-17
-1.1942041109414e-19 7.42470529397898e-18 -2.413121560415548e-17
-3.0101335281169e-19 1.386032783759573e-17 -4.5191879344599946e-17
1.8337355214107998e-19 -6.4629162315697894e-18 2.1130900394001398e-17
-1.1957444664266e-19 3.1217749016027497e-18 -1.023093809168802e-17
1.4879038567667998e-19 -2.7845281431292397e-18 9.1435845085196e-18
-6.514758895521299e-19 6.13053716243564e-18 -2.0159075668455078e-17

SCALARS Gamma float
LOOKUP_TABLE default
-4.3870472558606577e-5
0.0005961113648405127
0.003038380196605837
0.025639252022083968
0.055941361564712945
0.10245054176286013
0.1501345704082656
0.1940148010646634
0.2350146286206709
0.2665390644723691
0.2860389238723193
0.2892357498966657
0.2808972616259549
0.2558879989378954
0.24300937976206421
0.23413643128942327
0.2227138475357489
0.21704347398082702
0.21150887819631542
0.20321244488336476
0.20144858161458543
0.19783867066159191
0.19287198269021025
0.18939671561922797
0.18660298646937803
0.1855112218722543
0.18584631941999874
0.18622410397769998
0.187994585722059
0.1908587589454456
0.19116235821104138
0.19855646413369338
0.19952540094423293
0.1986654530127589
0.1975478056040016
0.19585738571546052
0.19366086256179552
0.19104485474841298
0.18823757788337475
0.1828397439817688
0.17916842369853417
0.17068517708266379
0.15804274903897828
0.14606113854562164
0.13047815290156972
0.10019773278619794
0.07777569430509872
0.05871855311884825
0.042439732115235336
0.02201396005858613
-4.3870472558606577e-5
0.0005961113648405127
0.003038380196605837
0.025639252022083968
0.055941361564712945
0.10245054176286013
0.1501345704082656
0.1940148010646634
0.2350146286206709
0.2665390644723691
0.2860389238723193
0.2892357498966657
0.2808972616259549
0.2558879989378954
0.24300937976206421
0.23413643128942327
0.2227138475357489
0.21704347398082702
0.21150887819631542
0.20321244488336476
0.20144858161458543
0.19783867066159191
0.19287198269021025
0.18939671561922797
0.18660298646937803
0.1855112218722543
0.18584631941999874
0.18622410397769998
0.187994585722059
0.1908587589454456
0.19116235821104138
0.19855646413369338
0.19952540094423293
0.1986654530127589
0.1975478056040016
0.19585738571546052
0.19366086256179552
0.19104485474841298
0.18823757788337475
0.1828397439817688
0.17916842369853417
0.17068517708266379
0.15804274903897828
0.14606113854562164
0.13047815290156972
0.10019773278619794
0.07777569430509872
0.05871855311884825
0.042439732115235336
0.02201396005858613

VECTORS Ftot float
0.007384050055683212 -0.017585714896985065 -0.004712078104971126
0.010361974852415662 -0.04968700851745674 -0.013313593806570889
-0.0006386900600354033 -0.11573634715821728 -0.031011460755972473
-0.2644902785050716 -0.23254261032537013 -0.062309604642508364
-0.7445244807681827 -0.3816945178845679 -0.10227473782255699
-1.6273348322271448 -0.6120806565119848 -0.16400651761509824
-2.7441238536419132 -0.8534064541092395 -0.22866957019407935
-3.9876607941898623 -1.1009069263394353 -0.29498712185448206
-5.3458315313483284 -1.3644200819564767 -0.36559525909704527
-6.628851949201654 -1.6020446310777312 -0.42926656513589523
-7.704184429938651 -1.793666775001677 -0.4806115638522371
-8.375768742719748 -1.8806573154329231 -0.5039206089099365
-8.68784351652329 -1.9044321316510626 -0.5102910517157853
-8.407809341187466 -1.8028406039974305 -0.48306968392315036
-8.449499552648156 -1.735613684863917 -0.46505628523169307
-8.581001701971063 -1.6829959519699071 -0.4509574061951865
-8.570641451162196 -1.6060084595537347 -0.43032866977497586
-8.74207636250235 -1.558545480512513 -0.4176110028705052
-8.886934106750585 -1.527077957058623 -0.40917930537322794
-8.876655339255336 -1.5171826582435561 -0.40652786804686614
-9.132482748166744 -1.5002931498616456 -0.4020023379153745
-9.289016896361973 -1.445510601774168 -0.38732339839601565
-9.35466072723045 -1.391423989728609 -0.37283093437707265
-9.471656205401557 -1.362609019812329 -0.36510998645807835
-9.6051031528337 -1.3291857302511554 -0.3561542430117703
-9.811589009061782 -1.3044218016920521 -0.3495187683529365
-10.084316157379709 -1.276408767100783 -0.34201269835666087
-10.351650024616182 -1.2382081098728133 -0.3317768631020882
-10.69028998763398 -1.1980601128629251 -0.32101923972556146
-11.087658995957243 -1.1541462381988905 -0.3092525524728118
-11.329703539391273 -1.0995818118682017 -0.2946320585020362
-11.992340280217055 -1.0675110390916203 -0.28603872083590914
-12.265701815603961 -0.9914134191362592 -0.2656484250229396
-12.41526505900364 -0.944207808456045 -0.2529997197629582
-12.536856498283521 -0.9056738527079325 -0.24267457743907478
-12.609971072555496 -0.8709950942061754 -0.23338243210401496
-12.637515223718834 -0.85264114717087 -0.2284645068179814
-12.624740383872167 -0.8382706042410697 -0.22461393144514455
-12.58647765782235 -0.8159551002328662 -0.21863451016745294
-12.360197246131222 -0.7974147638772389 -0.21366664201356117
-12.235700034682287 -0.7760408885623987 -0.20793952938382623
-11.766086649208438 -0.7665808484664727 -0.2054047192797568
-10.988385831131884 -0.8780023477851744 -0.2352600200416679
-10.235697372938482 -0.9548705836735206 -0.25585680177155545
-9.209583814956035 -1.1471128402396347 -0.3073679591695825
-7.11879932201598 -1.2236485440732698 -0.3278756392039527
-5.558787277028867 -1.272722818158396 -0.34102505131420585
-4.2196785923307045 -1.3263968264025343 -0.35540695847776416
-3.065417075295033 -1.3634922203444098 -0.36534663932740413
-1.6001699000313756 -1.4301419505221526 -0.3832053807042826
0.007384050055683212 -0.017585714896985065 -0.004712078104971126
0.010361974852415662 -0.04968700851745674 -0.013313593806570889
-0.0006386900600354033 -0.11573634715821728 -0.031011460755972473
-0.2644902785050716 -0.23254261032537013 -0.062309604642508364
-0.7445244807681827 -0.3816945178845679 -0.10227473782255699
-1.6273348322271448 -0.6120806565119848 -0.16400651761509824
-2.7441238536419132 -0.8534064541092395 -0.22866957019407935
-3.9876607941898623 -1.1009069263394353 -0.29498712185448206
-5.3458315313483284 -1.3644200819564767 -0.36559525909704527
-6.628851949201654 -1.6020446310777312 -0.42926656513589523
-7.704184429938651 -1.793666775001677 -0.4806115638522371
-8.375768742719748 -1.8806573154329231 -0.5039206089099365
-8.68784351652329 -1.9044321316510626 -0.5102910517157853
-8.407809341187466 -1.8028406039974305 -0.48306968392315036
-8.449499552648156 -1.735613684863917 -0.46505628523169307
-8.581001701971063 -1.6829959519699071 -0.4509574061951865
-8.570641451162196 -1.6060084595537347 -0.43032866977497586
-8.74207636250235 -1.558545480512513 -0.4176110028705052
-8.886934106750585 -1.527077957058623 -0.40917930537322794
-8.876655339255336 -1.5171826582435561 -0.40652786804686614
-9.132482748166744 -1.5002931498616456 -0.4020023379153745
-9.289016896361973 -1.445510601774168 -0.38732339839601565
-9.35466072723045 -1.391423989728609 -0.37283093437707265
-9.471656205401557 -1.362609019812329 -0.36510998645807835
-9.6051031528337 -1.3291857302511554 -0.3561542430117703
-9.811589009061782 -1.3044218016920521 -0.3495187683529365
-10.084316157379709 -1.276408767100783 -0.34201269835666087
-10.351650024616182 -1.2382081098728133 -0.3317768631020882
-10.69028998763398 -1.1980601128629251 -0.32101923972556146
-11.087658995957243 -1.1541462381988905 -0.3092525524728118
-11.329703539391273 -1.0995818118682017 -0.2946320585020362
-11.992340280217055 -1.0675110390916203 -0.28603872083590914
-12.265701815603961 -0.9914134191362592 -0.2656484250229396
-12.41526505900364 -0.944207808456045 -0.2529997197629582
-12.536856498283521 -0.9056738527079325 -0.24267457743907478
-12.609971072555496 -0.8709950942061754 -0.23338243210401496
-12.637515223718834 -0.85264114717087 -0.2284645068179814
-12.624740383872167 -0.8382706042410697 -0.22461393144514455
-12.58647765782235 -0.8159551002328662 -0.21863451016745294
-12.360197246131222 -0.7974147638772389 -0.21366664201356117
-12.235700034682287 -0.7760408885623987 -0.20793952938382623
-11.766086649208438 -0.7665808484664727 -0.2054047192797568
-10.988385831131884 -0.8780023477851744 -0.2352600200416679
-10.235697372938482 -0.9548705836735206 -0.25585680177155545
-9.209583814956035 -1.1471128402396347 -0.3073679591695825
-7.11879932201598 -1.2236485440732698 -0.3278756392039527
-5.558787277028867 -1.272722818158396 -0.34102505131420585
-4.2196785923307045 -1.3263968264025343 -0.35540695847776416
-3.065417075295033 -1.3634922203444098 -0.36534663932740413
-1.6001699000313756 -1.4301419505221526 -0.3832053807042826

VECTORS D float
0.0071537723711637665 -0.017891743151379685 -0.0036686300890823582
0.014611959260693209 -0.0490411265065386 -0.010383340527743912
0.028385321444076496 -0.1097995905547266 -0.02377768436119711
0.040336615333333894 -0.16282464690753087 -0.03632581037418522
0.048922123598836506 -0.20529032762245972 -0.04767158413281201
0.05710618121592179 -0.2453375088356789 -0.05945573283888589
0.058434314776648566 -0.25664655760507826 -0.06470364522997593
0.057600979503668055 -0.2582938647231374 -0.06758677678112777
0.05782724761119114 -0.2650451676552446 -0.07180092856952842
0.06040061261087028 -0.28569026081003807 -0.08008917565949464
0.06557937501453497 -0.32170245471929115 -0.09284341526331648
0.06803609807637974 -0.3478733903070486 -0.1029126564476671
0.07220964250430716 -0.3864464707243477 -0.11672900333082395
0.07187016557154488 -0.4037541840904402 -0.12410356129684373
0.06769858269638564 -0.3998989188758042 -0.12474138254604224
0.06367509064120577 -0.3959840204466518 -0.1253476578396515
0.058922259231711904 -0.3856217814441317 -0.12334938038397147
0.054540221431212135 -0.3750460587883958 -0.12107229909774785
0.052759352228663695 -0.38055290496104704 -0.12385595987988869
0.0559444065016257 -0.4226417122589703 -0.13856543998983756
0.05371597633884246 -0.4246142062418163 -0.1401374079082813
0.048463712162527324 -0.40076337004257967 -0.13306217252531008
0.0456426626190042 -0.4008454983320289 -0.13383429861278387
0.04452690952178764 -0.41329950904375107 -0.1384046168646591
0.04280824348682786 -0.42160061220213463 -0.1414743565037019
0.04139696962457317 -0.43492165868974875 -0.1460971178276683
0.039347994138841436 -0.44397799016070216 -0.14913771740771134
0.03672149933802072 -0.4485299054717602 -0.1505038920525218
0.03381290374075383 -0.4510523446535916 -0.15102886979924612
0.030675080264192838 -0.45117362883453055 -0.15060157143584568
0.02773854596023984 -0.45535554805087547 -0.15120018016313597
0.024970025803398087 -0.4617445802577502 -0.15257803679376072
0.021294074590332557 -0.45811952581460347 -0.15055582215994487
0.0191433988254692 -0.4757783032482437 -0.15537838931435993
0.017197118786222276 -0.4999395789314996 -0.16222504143748792
0.015238715288547925 -0.5255075517287902 -0.16942806359373505
0.01355739045814398 -0.5637197143751237 -0.1805962809136256
0.011767146842581618 -0.6016484447761089 -0.19155700736395156
0.009729327451819564 -0.6268566375362221 -0.1983973669926047
0.007723535352806815 -0.6537900193605976 -0.2057762822472229
0.005803629426011796 -0.6694040812566909 -0.20955231585007442
0.004109523533814739 -0.6935282842214829 -0.2160244494763522
0.0029573139913295385 -0.8318937990328145 -0.2579488689828957
0.0014192527606181917 -0.9296032170985529 -0.2870674752110263
-0.0002214450363043922 -1.1359429952555853 -0.3495064510559862
-0.00201414037916439 -1.221089994241503 -0.3744943029962492
-0.003664822969956239 -1.2738556323996315 -0.38957877128809615
-0.005197502963725114 -1.3277418415675972 -0.4050742591864274
-0.006532685739556971 -1.3630399388132752 -0.41498507127795736
-0.00787859933059524 -1.4238906331869992 -0.43276199107387797
0.0071537723711637665 -0.017891743151379685 -0.0036686300890823582
0.014611959260693209 -0.0490411265065386 -0.010383340527743912
0.028385321444076496 -0.1097995905547266 -0.02377768436119711
0.040336615333333894 -0.16282464690753087 -0.03632581037418522
0.048922123598836506 -0.20529032762245972 -0.04767158413281201
0.05710618121592179 -0.2453375088356789 -0.05945573283888589
0.058434314776648566 -0.25664655760507826 -0.06470364522997593
0.057600979503668055 -0.2582938647231374 -0.06758677678112777
0.05782724761119114 -0.2650451676552446 -0.07180092856952842
0.06040061261087028 -0.28569026081003807 -0.08008917565949464
0.06557937501453497 -0.32170245471929115 -0.09284341526331648
0.06803609807637974 -0.3478733903070486 -0.1029126564476671
0.07220964250430716 -0.3864464707243477 -0.11672900333082395
0.07187016557154488 -0.4037541840904402 -0.12410356129684373
0.06769858269638564 -0.3998989188758042 -0.12474138254604224
0.06367509064120577 -0.3959840204466518 -0.1253476578396515
0.058922259231711904 -0.3856217814441317 -0.12334938038397147
0.054540221431212135 -0.3750460587883958 -0.12107229909774785
0.052759352228663695 -0.38055290496104704 -0.12385595987988869