# vtk DataFile Version 4.0
[MyVLM domain - lattices] 
ASCII
DATASET UNSTRUCTURED_GRID
POINTS 152 float
0.0018916144324157278 0.0005396899529873902 -0.010108350874058127
0.0010688609733395774 0.0033489847000256613 -0.013308426088719207
0.00045780959861706216 0.006096417466463717 -0.016464381050990146
-0.00013255382275044122 0.008860593759780138 -0.01946395546204646
-0.0007201482309470062 0.01160851031913763 -0.022354282863068918
-0.0011946371146526612 0.01442596421065961 -0.02501283234508904
-0.0014108622120167862 0.01748722050509258 -0.027190727594675432
-0.0013224843579428829 0.020647000983214252 -0.02909544741103346
-0.0010167791708201568 0.023693252342055555 -0.031029835296121473
-0.0006138083932142036 0.026767808048556375 -0.03279133206683997
-0.00020084691410191335 0.029805176566598784 -0.03447346932995422
0.0001698744379422134 0.03272308043140435 -0.03619375148278735
0.0004739400232210948 0.03556377224961423 -0.037891835549385126
0.0007082255455298663 0.038374173496698416 -0.03950071071808169
0.0008836440760600275 0.04114754100608386 -0.041030007228777476
0.001017516815515788 0.04384989560376403 -0.042528252371100625
0.0011275777072549662 0.04645011563591714 -0.044039892472923274
0.0012277625198140337 0.048940424034621774 -0.04557603433829566
0.00132638558954348 0.051340222188292636 -0.04710896991302533
0.0014271324949937316 0.053678088186343294 -0.048597885455679786
0.0015306083418583354 0.05597288722522386 -0.05001583867355199
0.0016355657532635378 0.058225047515559646 -0.051362218018490946
0.0017398364473795213 0.06042301792925413 -0.05265352021106332
0.0018410131526058282 0.06255343704614244 -0.053908827336844836
0.001936923789896676 0.06460648481670286 -0.05514216387998601
0.0020259353317291845 0.06657667624246157 -0.05636136323012421
0.0021071205190511294 0.06846256073888217 -0.05756849703667376
0.002180316672546981 0.07026623255659155 -0.05876057439977619
0.0022461021518325993 0.07199272215361492 -0.059930411080829804
0.0023056987632523672 0.07364924048479417 -0.06106770876905048
0.0023607022647827588 0.0752436639297937 -0.06216121882852015
0.0024126938092907785 0.07678249997668062 -0.06320164760312687
0.0024629658139780817 0.07826959307692186 -0.06418350464717111
0.0025123806343549317 0.07970563389137612 -0.06510580359472419
0.0025613283706516186 0.08108825081139474 -0.0659719314539505
0.0026097549007438213 0.08241249562031525 -0.06678895501061342
0.0026572361369983943 0.08367157388293997 -0.0675665777237975
0.002703078927872171 0.0848581830039001 -0.06831522878052271
0.0027464329900004744 0.08596773217160922 -0.06904146453920555
0.0027864017842759935 0.08700101120083367 -0.06974415702746176
0.0028221433614242725 0.08796445341775441 -0.07041411850332925
0.0028529549202113143 0.08886876887876262 -0.07103605342112092
0.002878337166053322 0.08972711643327605 -0.07159116899626974
0.0028980365508205295 0.0905556873496914 -0.07205634170108838
0.0029120651374179955 0.09137445072823298 -0.072403052704895
0.002920699186668212 0.09220374956218697 -0.07260224920237686
0.0029244586304951574 0.09305888062006187 -0.07263208514407885
0.002924070395798875 0.09394509887836743 -0.07248505564577319
0.0029204190990956736 0.0948544670287511 -0.07217249635856239
0.0029144889643634465 0.09576516097445228 -0.07172557532273408
0.002907300946956263 0.09664323583154903 -0.07119277085660046
0.006212993241944028 0.008911221185387744 0.0018474347688737735
0.0072288922610571306 0.014050562593222272 0.001975011048444985
0.007974780507892725 0.018262018381554557 0.0009098976467168486
0.008270023946844132 0.021868441318719747 -0.0008868238987416144
0.008140225139500825 0.025019778875649646 -0.003201006406203123
0.007751519283975376 0.027936576136349436 -0.0057176788535489
0.007318662739924205 0.03088783732047422 -0.008052663400673319
0.0069707766105224795 0.03379141214416 -0.010323282811730014
0.006702226685381192 0.0364777132494851 -0.012771732933903528
0.006460614097576536 0.039119513173403904 -0.015151269012922646
0.006208498480286784 0.041675599820989194 -0.01752074802001135
0.005928720355726676 0.04408295058193463 -0.019970175570458323
0.00562110152420414 0.04639891531938128 -0.02241764757153172
0.005297776270156929 0.048682285123043845 -0.024779201645641277
0.004977662142563614 0.05093565570388753 -0.02705113073334598
0.004680078492205027 0.05313244233062781 -0.029271401765639603
0.0044193472589770496 0.05524750633392195 -0.031475916483036104
0.0042022226504668725 0.05727793550390684 -0.033668833952246686
0.004028605706719037 0.05924693171928681 -0.03581701845644712
0.003894567528214928 0.061185730732408274 -0.037875860718184814
0.003794542923454683 0.0631147560219839 -0.03981619298704546
0.0037223892098821663 0.06503503233138982 -0.04163655177781904
0.0036720478837599236 0.06693478528498387 -0.04335375264160955
0.0036379885391020494 0.06879974370285276 -0.04498817693556401
0.003615480687410345 0.0706186167730254 -0.0465559496102934
0.003600729157216099 0.0723840057913881 -0.04806763711033023
0.0035909263662617956 0.07409221188246894 -0.04952852197730686
0.003584242976167935 0.07574284532693462 -0.05093916078811233
0.00357976601221264 0.07733830715597499 -0.052296124514838734
0.003577378730160166 0.07888311535707516 -0.05359296080266474
0.0035774796054096774 0.08038246302618027 -0.054822253141967495
0.003580588564800478 0.08184024834664187 -0.05597843434996353
0.0035870678637920984 0.08325783583213088 -0.05705955569917356
0.0035969747054953923 0.08463361186058659 -0.05806792168072724
0.0036100119296844893 0.08596311329510063 -0.05900990631470401
0.0036255480079795204 0.08723954115046577 -0.059895219558275536
0.0036426825552804717 0.08845451015173028 -0.060735836825150054
0.0036603380175139954 0.0895993975309611 -0.06154407270416379
0.003677362157174432 0.09066856581126861 -0.06232797834669972
0.0036926294639041822 0.09166202723081257 -0.06308753627485435
0.0037051326977571345 0.09258569567822413 -0.06381430058036702
0.003714058455611533 0.09345000322719994 -0.06449337271798164
0.003718842962038476 0.09426805062789297 -0.0651060428774805
0.003719206248598144 0.09505616535518534 -0.06562899300815549
0.003715164522496519 0.09583461833604603 -0.06603327322606106
0.0037070218583473346 0.09662418911828845 -0.06628920726140652
0.003695343396461056 0.09744071354248593 -0.06637417919004197
0.003680913018392471 0.0982900555114399 -0.0662798144908698
0.0036646790161518838 0.09916492420930367 -0.066016525528009
0.003647691596346039 0.10004414846658144 -0.06561454786497538
0.0036310361855396924 0.10089441351092054 -0.06512145992749949
0.005410766489344848 0.009096753248605389 -0.001493679938852632
0.005892211109850776 0.013297893136352488 -0.0026397601317779806
0.006132458642509649 0.016918548790883347 -0.004482389408638864
0.006047255650667177 0.020141720582753243 -0.006760216154993697
0.005720055990603616 0.02311294244572431 -0.009265396373426755
0.005325630843128663 0.026048303135777898 -0.01168932333780389
0.005016871435172548 0.029021496235276195 -0.013926751705364865
0.004834968294868498 0.03189345368827563 -0.016176291243006943
0.004732241848104854 0.03465659245740987 -0.018448771650429994
0.00464908530328423 0.03736979044979181 -0.020660106561949526
0.004547585503985086 0.03997548852584682 -0.022892498948018824
0.004411660012619469 0.04246655629812079 -0.025156132057267827
0.004242349868979272 0.0448976933841985 -0.027372886739873224
0.00405227310746894 0.04729694212294706 -0.02950271438547762
0.003859297849485217 0.049650216339174234 -0.031565732137104355
0.0036804214720396232 0.05192998215416631 -0.03360126244875638
0.003527506244425096 0.05412085814800315 -0.03563127226463341
0.003405829147614405 0.05623190598656193 -0.0376428201846753
0.003315379723667389 0.05828953721621516 -0.039598186611575124
0.003253134023982613 0.06031905445934296 -0.04146123565561533
0.003214621311891553 0.06233091247511309 -0.04321703637332956
0.0031948391851961662 0.06431968978674187 -0.04487333143598001
0.0031888698585714084 0.0662725052423633 -0.04644851703492861
0.0031922930777549615 0.06817687541130998 -0.04796042135680039
0.003201436081938149 0.07002387859405063 -0.049421785908997644
0.0032135028026517493 0.07180848625036436 -0.050839792191213665
0.003226618152360912 0.07352924561546055 -0.052216514966588454
0.0032398057236901635 0.07518780151986693 -0.0535496051736824
0.003252904392775423 0.07678827877219495 -0.05483317197529885
0.003266372004343082 0.07833620494554427 -0.05605932117893342
0.0032809500730880004 0.0798367872531176 -0.05722061611343002
0.0032973286136308236 0.0812932931987401 -0.05831239029971367
0.0033159342695244357 0.0827061962558063 -0.05933396754769971
0.0033368336138182735 0.08407300752122907 -0.06028890237937106
0.0033597203855484335 0.08538858872105116 -0.06118453301043782
0.0033839603409402744 0.08664577792623043 -0.06203108773558597
0.003408672097906746 0.08783643499186429 -0.06284019188653273
0.0034328265552422406 0.08895372565027482 -0.06362160580903985
0.0034553512046890385 0.08999506531233581 -0.0643790206789162
0.003475228953835527 0.09096357916821228 -0.06510797326205689
0.0034915839677176984 0.09186753987659867 -0.06579664897743702
0.0035037495424018335 0.09271875585966469 -0.06642818365047214
0.0035113151685979642 0.0935319314665253 -0.06698157729428326
0.003514151750190315 0.09432531114395232 -0.06743077413857913
0.003512415433327221 0.09511932783167792 -0.06774659292120934
0.0035065316976985676 0.09593216727057151 -0.06790306171260016
0.0034971622838568268 0.09677453583252585 -0.06788489022907342
0.003485158199815951 0.09764556313366866 -0.0676933215076215
0.0034715024876191118 0.09853085575385735 -0.0673489114825312
0.003457246657122113 0.09940301034231341 -0.0668907961945949

CELLS 100 350
4 0 51 52 1
4 1 52 53 2
4 2 53 54 3
4 3 54 55 4
4 4 55 56 5
4 5 56 57 6
4 6 57 58 7
4 7 58 59 8
4 8 59 60 9
4 9 60 61 10
4 10 61 62 11
4 11 62 63 12
4 12 63 64 13
4 13 64 65 14
4 14 65 66 15
4 15 66 67 16
4 16 67 68 17
4 17 68 69 18
4 18 69 70 19
4 19 70 71 20
4 20 71 72 21
4 21 72 73 22
4 22 73 74 23
4 23 74 75 24
4 24 75 76 25
4 25 76 77 26
4 26 77 78 27
4 27 78 79 28
4 28 79 80 29
4 29 80 81 30
4 30 81 82 31
4 31 82 83 32
4 32 83 84 33
4 33 84 85 34
4 34 85 86 35
4 35 86 87 36
4 36 87 88 37
4 37 88 89 38
4 38 89 90 39
4 39 90 91 40
4 40 91 92 41
4 41 92 93 42
4 42 93 94 43
4 43 94 95 44
4 44 95 96 45
4 45 96 97 46
4 46 97 98 47
4 47 98 99 48
4 48 99 100 49
4 49 100 101 50
1 102
1 103
1 104
1 105
1 106
1 107
1 108
1 109
1 110
1 111
1 112
1 113
1 114
1 115
1 116
1 117
1 118
1 119
1 120
1 121
1 122
1 123
1 124
1 125
1 126
1 127
1 128
1 129
1 130
1 131
1 132
1 133
1 134
1 135
1 136
1 137
1 138
1 139
1 140
1 141
1 142
1 143
1 144
1 145
1 146
1 147
1 148
1 149
1 150
1 151

CELL_TYPES 100
9
9
9
9
9
9
9
9
9
9
9
9
9
9
9
9
9
9
9
9
9
9
9
9
9
9
9
9
9
9
9
9
9
9
9
9
9
9
9
9
9
9
9
9
9
9
9
9
9
9
1
1
1
1
1
1
1
1
1
1
1
1
1
1
1
1
1
1
1
1
1
1
1
1
1
1
1
1
1
1
1
1
1
1
1
1
1
1
1
1
1
1
1
1
1
1
1
1
1
1

CELL_DATA 100

VECTORS S float
-5.5318302453869e-19 6.8671185440257e-19 -1.7107306163272e-19
1.25392782975287e-17 -9.40234697918395e-18 1.43071056563719e-18
-4.44770173001e-20 2.2089282765795e-19 -1.2767432167784e-19
5.3123614131956e-19 -1.516464995455468e-17 9.428396839565259e-18
6.5401765678241e-19 -3.816941809540576e-17 2.3489569363451728e-17
1.8085451165285e-19 -2.039610254432441e-17 1.231260917180266e-17
1.9836738514579998e-20 -4.69441678929335e-18 2.7814563850740397e-18
6.360089223143e-20 -6.367084285891243e-17 3.7016888481279606e-17
-7.768111485582999e-20 -5.108756168621165e-17 2.915480592332504e-17
9.239247829332e-20 2.5866730427507497e-17 -1.450583607310276e-17
-5.0174590751184e-19 -9.45790144155173e-17 5.2188976948798625e-17
2.0911254834052999e-19 3.169075018491772e-17 -1.725347196786812e-17
3.1385754360599996e-20 4.04551851611697e-18 -2.17465649849797e-18
-7.5615416394526e-19 -8.714914237870098e-17 4.6337147228983626e-17
-6.139978320646e-19 -6.660883758083101e-17 3.508132834787692e-17
1.14674529519901e-18 1.199517887252939e-16 -6.265769646567983e-17
1.14745301019017e-18 1.1773044431969827e-16 -6.10579914217309e-17
1.0802564526383299e-18 1.0796290603001708e-16 -5.542425941625093e-17
-3.5022831277337e-19 -3.514043194525703e-17 1.795517689941698e-17
-5.0173948734769e-19 -4.8829494766875395e-17 2.4842758677308948e-17
1.19389795946713e-18 1.1754117824947477e-16 -5.955597291560702e-17
6.929560183379999e-20 7.01318530417625e-18 -3.5399760522517696e-18
-6.854096308968699e-19 -7.000318962019962e-17 3.521687418650638e-17
4.766043732834e-20 4.9116141827394494e-18 -2.46389020063916e-18
9.122039883946399e-19 9.582178446699343e-17 -4.7959554466133255e-17
-1.319867569472e-19 -1.422227701095848e-17 7.10702436396578e-18
3.7698355064040996e-19 4.225637167419785e-17 -2.1097822074697378e-17
9.586793472222e-20 1.156651679616945e-17 -5.77800016787964e-18
-3.736348887303e-19 -4.844387851414761e-17 2.423385524167541e-17
2.6600594038962e-19 3.752226620559646e-17 -1.880908415173729e-17
2.365103943371e-19 3.6231365929438587e-17 -1.821067617086912e-17
-2.9899429291462997e-19 -5.0816448577465634e-17 2.562311986563384e-17
2.5186513131708e-19 4.741168473422337e-17 -2.3993229176695967e-17
2.6389342618136e-19 5.429471091118641e-17 -2.75862117994281e-17
-1.4487012877802e-19 -3.2247939794645055e-17 1.645207479897752e-17
4.974085943882e-20 1.197593951618505e-17 -6.136048231568969e-18
7.736961851864999e-20 1.9659378561094018e-17 -1.011467556294943e-17
4.7687223844749996e-20 1.268893525558961e-17 -6.55484264170104e-18
-2.264773855246e-19 -6.350949831038517e-17 3.293511966702404e-17
-1.137365413954e-20 -3.2907162870166e-18 1.71280023710163e-18
5.2012318040949995e-20 1.569622179661362e-17 -8.19791966424577e-18
-5.39688939397e-20 -1.6584002377012718e-17 8.696334114227479e-18
-1.8805531689832e-19 -4.7637234484993416e-17 2.5052549901305518e-17
-2.8376578424105e-19 -6.005991159072118e-17 3.166785743932006e-17
-4.5695661125552e-19 -7.411151968443056e-17 3.916716685096219e-17
4.05923975307e-21 5.685885666051699e-19 -3.0110073468341e-19
3.1536096655829e-19 3.78166000604074e-17 -2.006118997189628e-17
-1.3647259174042598e-18 -1.2648572590177209e-16 6.719953355519685e-17
1.08304303069244e-18 6.85541958974066e-17 -3.646729091958998e-17
3.65225192186466e-18 1.1372109493093005e-16 -6.055281316571895e-17
-5.5318302453869e-19 6.8671185440257e-19 -1.7107306163272e-19
1.25392782975287e-17 -9.40234697918395e-18 1.43071056563719e-18
-4.44770173001e-20 2.2089282765795e-19 -1.2767432167784e-19
5.3123614131956e-19 -1.516464995455468e-17 9.428396839565259e-18
6.5401765678241e-19 -3.816941809540576e-17 2.3489569363451728e-17
1.8085451165285e-19 -2.039610254432441e-17 1.231260917180266e-17
1.9836738514579998e-20 -4.69441678929335e-18 2.7814563850740397e-18
6.360089223143e-20 -6.367084285891243e-17 3.7016888481279606e-17
-7.768111485582999e-20 -5.108756168621165e-17 2.915480592332504e-17
9.239247829332e-20 2.5866730427507497e-17 -1.450583607310276e-17
-5.0174590751184e-19 -9.45790144155173e-17 5.2188976948798625e-17
2.0911254834052999e-19 3.169075018491772e-17 -1.725347196786812e-17
3.1385754360599996e-20 4.04551851611697e-18 -2.17465649849797e-18
-7.5615416394526e-19 -8.714914237870098e-17 4.6337147228983626e-17
-6.139978320646e-19 -6.660883758083101e-17 3.508132834787692e-17
1.14674529519901e-18 1.199517887252939e-16 -6.265769646567983e-17
1.14745301019017e-18 1.1773044431969827e-16 -6.10579914217309e-17
1.0802564526383299e-18 1.0796290603001708e-16 -5.542425941625093e-17
-3.5022831277337e-19 -3.514043194525703e-17 1.795517689941698e-17
-5.0173948734769e-19 -4.8829494766875395e-17 2.4842758677308948e-17
1.19389795946713e-18 1.1754117824947477e-16 -5.955597291560702e-17
6.929560183379999e-20 7.01318530417625e-18 -3.5399760522517696e-18
-6.854096308968699e-19 -7.000318962019962e-17 3.521687418650638e-17
4.766043732834e-20 4.9116141827394494e-18 -2.46389020063916e-18
9.122039883946399e-19 9.582178446699343e-17 -4.7959554466133255e-17
-1.319867569472e-19 -1.422227701095848e-17 7.10702436396578e-18
3.7698355064040996e-19 4.225637167419785e-17 -2.1097822074697378e-17
9.586793472222e-20 1.156651679616945e-17 -5.77800016787964e-18
-3.736348887303e-19 -4.844387851414761e-17 2.423385524167541e-17
2.6600594038962e-19 3.752226620559646e-17 -1.880908415173729e-17
2.365103943371e-19 3.6231365929438587e-17 -1.821067617086912e-17
-2.9899429291462997e-19 -5.0816448577465634e-17 2.562311986563384e-17
2.5186513131708e-19 4.741168473422337e-17 -2.3993229176695967e-17
2.6389342618136e-19 5.429471091118641e-17 -2.75862117994281e-17
-1.4487012877802e-19 -3.2247939794645055e-17 1.645207479897752e-17
4.974085943882e-20 1.197593951618505e-17 -6.136048231568969e-18
7.736961851864999e-20 1.9659378561094018e-17 -1.011467556294943e-17
4.7687223844749996e-20 1.268893525558961e-17 -6.55484264170104e-18
-2.264773855246e-19 -6.350949831038517e-17 3.293511966702404e-17
-1.137365413954e-20 -3.2907162870166e-18 1.71280023710163e-18
5.2012318040949995e-20 1.569622179661362e-17 -8.19791966424577e-18
-5.39688939397e-20 -1.6584002377012718e-17 8.696334114227479e-18
-1.8805531689832e-19 -4.7637234484993416e-17 2.5052549901305518e-17
-2.8376578424105e-19 -6.005991159072118e-17 3.166785743932006e-17
-4.5695661125552e-19 -7.411151968443056e-17 3.916716685096219e-17
4.05923975307e-21 5.685885666051699e-19 -3.0110073468341e-19
3.1536096655829e-19 3.78166000604074e-17 -2.006118997189628e-17
-1.3647259174042598e-18 -1.2648572590177209e-16 6.719953355519685e-17
1.08304303069244e-18 6.85541958974066e-17 -3.646729091958998e-17
3.65225192186466e-18 1.1372109493093005e-16 -6.055281316571895e-17

SCALARS Gamma float
LOOKUP_TABLE default
8.7832447348036e-5
0.00023380700729334778
0.0029671237952138096
0.025321375140420634
0.056704865137649295
0.10129757010587111
0.14920829162741292
0.19373385681105898
0.23627464219036948
0.2681513098038518
0.2882801037190233
0.29101276441572055
0.2835756407005129
0.260023072386197
0.2478194097221308
0.2385823379205692
0.2269692282346607
0.2235810463756494
0.21881231671899523
0.20977501687958836
0.20790540334834776
0.20430156290632812
0.19573505816896936
0.19085349513731145
0.18694024895648093
0.1850071036223113
0.18462037474866846
0.18734936095965118
0.18871366570545375
0.19107029509451398
0.1905959450144458
0.19747122354747745
0.19631650048782107
0.19545883156290916
0.19398903079530944
0.19229639193058345
0.18961920713510388
0.18643393042651862
0.18289885746193071
0.17644874931986607
0.17159740121705058
0.16307979649876736
0.14783680542196753
0.12928759236093876
0.11484746124169562
0.10243672840489453
0.08858190853507855
0.06955034933388082
0.047762796771099604
0.024209538821832893
8.7832447348036e-5
0.00023380700729334778
0.0029671237952138096
0.025321375140420634
0.056704865137649295
0.10129757010587111
0.14920829162741292
0.19373385681105898
0.23627464219036948
0.2681513098038518
0.2882801037190233
0.29101276441572055
0.2835756407005129
0.260023072386197
0.2478194097221308
0.2385823379205692
0.2269692282346607
0.2235810463756494
0.21881231671899523
0.20977501687958836
0.20790540334834776
0.20430156290632812
0.19573505816896936
0.19085349513731145
0.18694024895648093
0.1850071036223113
0.18462037474866846
0.18734936095965118
0.18871366570545375
0.19107029509451398
0.1905959450144458
0.19747122354747745
0.19631650048782107
0.19545883156290916
0.19398903079530944
0.19229639193058345
0.18961920713510388
0.18643393042651862
0.18289885746193071
0.17644874931986607
0.17159740121705058
0.16307979649876736
0.14783680542196753
0.12928759236093876
0.11484746124169562
0.10243672840489453
0.08858190853507855
0.06955034933388082
0.047762796771099604
0.024209538821832893

VECTORS Ftot float
0.0024646197676042323 0.003492237919496867 0.006048733508687191
0.013650287992478822 0.024719490152242264 0.04281541288088203
-0.00031012719016308113 0.056166179364268584 0.0972826763259396
-0.26111352390619036 0.118983929346234 0.2060862109118624
-0.7573280426884912 0.19688517846056272 0.3410151323509594
-1.6122088415556968 0.31353453869397313 0.5430577509456304
-2.7325334784004958 0.43994705713474536 0.7620106555977851
-3.9887221841207077 0.5709942056665509 0.9889909750418969
-5.383910621108322 0.7089135375467696 1.227874265204389
-6.680538266531886 0.8319769259649861 1.4410263064963231
-7.777545696416902 0.9324493850836849 1.6150497104512958
-8.439451576453962 0.9767193358430065 1.691727514415013
-8.782548666896387 0.9883254862093775 1.7118299565298523
-8.554386886823778 0.9386993054581508 1.6258748900831308
-8.626181478020722 0.9059665633458595 1.569180117673593
-8.751102128972649 0.8783254287470849 1.5213042681696654
-8.741024528779901 0.837578108873626 1.450727839876574
-9.015372947603346 0.8139317008253335 1.4097710597204254
-9.203727931309063 0.7976450948632904 1.3815618307113129
-9.171682835342299 0.7933344212866951 1.374095525061805
-9.432937691979513 0.7827763133211867 1.3558083456337469
-9.598999433345968 0.7543585777109852 1.3065873837208188
-9.499379261851216 0.7229768208917124 1.2522325864790673
-9.548303727484782 0.7066060649151453 1.2238776053693414
-9.624568555464245 0.688410166691964 1.192361385157439
-9.785704789310195 0.6753201889432042 1.169688878626641
-10.017533902433343 0.6609258235940398 1.1447571064991797
-10.412554060466196 0.6404136785073873 1.1092290290368731
-10.72974661553318 0.619667599741867 1.0732957665571663
-11.098955259134607 0.5971686648104808 1.0343264681398192
-11.295717786874995 0.5696825746625402 0.9867191635021678
-11.926514129678264 0.5540729236713658 0.9596824548970361
-12.06828023853487 0.519214024946113 0.8993050712090004
-12.21539478688129 0.4948675300166329 0.857135705004923
-12.312219081936588 0.47537854598766793 0.8233797944788571
-12.382548642395076 0.45691555316941995 0.7914009528578725
-12.375877505964175 0.4473862631682411 0.7748957384157724
-12.322325266998591 0.4399603080875053 0.7620336069212139
-12.231944505752093 0.4285541598191041 0.7422775786016794
-11.9305009169355 0.4187301853771383 0.7252619557359365
-11.7211311919896 0.4072409977733397 0.7053620990684669
-11.244609683082901 0.39885324879820183 0.6908340916823943
-10.280908136059423 0.45545451069586873 0.7888703530616656
-9.06163896584894 0.49358801990562273 0.8549195284838552
-8.10692141207512 0.5906430611241525 1.02302379100504
-7.2777718755100524 0.6276658591824816 1.0871491582804282
-6.329939620653484 0.6503179656579721 1.1263837575944373
-4.995603225628474 0.6754997172541736 1.169999830782637
-3.4466482478921083 0.6924265777510846 1.1993180131759176
-1.7554674169139404 0.7252277468897497 1.2561313046717455
0.0024646197676042323 0.003492237919496867 0.006048733508687191
0.013650287992478822 0.024719490152242264 0.04281541288088203
-0.00031012719016308113 0.056166179364268584 0.0972826763259396
-0.26111352390619036 0.118983929346234 0.2060862109118624
-0.7573280426884912 0.19688517846056272 0.3410151323509594
-1.6122088415556968 0.31353453869397313 0.5430577509456304
-2.7325334784004958 0.43994705713474536 0.7620106555977851
-3.9887221841207077 0.5709942056665509 0.9889909750418969
-5.383910621108322 0.7089135375467696 1.227874265204389
-6.680538266531886 0.8319769259649861 1.4410263064963231
-7.777545696416902 0.9324493850836849 1.6150497104512958
-8.439451576453962 0.9767193358430065 1.691727514415013
-8.782548666896387 0.9883254862093775 1.7118299565298523
-8.554386886823778 0.9386993054581508 1.6258748900831308
-8.626181478020722 0.9059665633458595 1.569180117673593
-8.751102128972649 0.8783254287470849 1.5213042681696654
-8.741024528779901 0.837578108873626 1.450727839876574
-9.015372947603346 0.8139317008253335 1.4097710597204254
-9.203727931309063 0.7976450948632904 1.3815618307113129
-9.171682835342299 0.7933344212866951 1.374095525061805
-9.432937691979513 0.7827763133211867 1.3558083456337469
-9.598999433345968 0.7543585777109852 1.3065873837208188
-9.499379261851216 0.7229768208917124 1.2522325864790673
-9.548303727484782 0.7066060649151453 1.2238776053693414
-9.624568555464245 0.688410166691964 1.192361385157439
-9.785704789310195 0.6753201889432042 1.169688878626641
-10.017533902433343 0.6609258235940398 1.1447571064991797
-10.412554060466196 0.6404136785073873 1.1092290290368731
-10.72974661553318 0.619667599741867 1.0732957665571663
-11.098955259134607 0.5971686648104808 1.0343264681398192
-11.295717786874995 0.5696825746625402 0.9867191635021678
-11.926514129678264 0.5540729236713658 0.9596824548970361
-12.06828023853487 0.519214024946113 0.8993050712090004
-12.21539478688129 0.4948675300166329 0.857135705004923
-12.312219081936588 0.47537854598766793 0.8233797944788571
-12.382548642395076 0.45691555316941995 0.7914009528578725
-12.375877505964175 0.4473862631682411 0.7748957384157724
-12.322325266998591 0.4399603080875053 0.7620336069212139
-12.231944505752093 0.4285541598191041 0.7422775786016794
-11.9305009169355 0.4187301853771383 0.7252619557359365
-11.7211311919896 0.4072409977733397 0.7053620990684669
-11.244609683082901 0.39885324879820183 0.6908340916823943
-10.280908136059423 0.45545451069586873 0.7888703530616656
-9.06163896584894 0.49358801990562273 0.8549195284838552
-8.10692141207512 0.5906430611241525 1.02302379100504
-7.2777718755100524 0.6276658591824816 1.0871491582804282
-6.329939620653484 0.6503179656579721 1.1263837575944373
-4.995603225628474 0.6754997172541736 1.169999830782637
-3.4466482478921083 0.6924265777510846 1.1993180131759176
-1.7554674169139404 0.7252277468897497 1.2561313046717455

VECTORS D float
0.002874517404513416 0.0037316413906349 0.005684285638718474
0.01529432097632406 0.026629644932818497 0.04095965732305209
0.02805121986481163 0.05652074101478211 0.08801606748471383
0.04040262015707462 0.08712286261659738 0.13785210833870065
0.0480442198281521 0.10668807283512198 0.17202528608507198
0.05593592282164355 0.12600204160877884 0.2079034802228149
0.057498777336633354 0.13168202728091524 0.22183692500659302
0.05765956606317217 0.13398569835900645 0.2303628288483277
0.05788987026917957 0.13666813949005946 0.2396359274273215
0.06018302548391855 0.14498622668397806 0.25892200086114936
0.06530857464879594 0.16150935956009022 0.2933217942008843
0.06774059912358359 0.17291363554951977 0.31842450303951364
0.07152724340826468 0.19018705400403377 0.35483773438413685
0.07109913695610803 0.1974536814597669 0.3725236001667597
0.06715383942336349 0.19513393126725329 0.37167568219803093
0.0633176518620925 0.19267799815108683 0.37002125921285384
0.05840184668658793 0.1861273431668415 0.35998347921473933
0.05342097965902712 0.1790482706164302 0.3498157698016405
0.05135400794660858 0.18047587902626588 0.35421460940586685
0.05524871211563195 0.20315224022609846 0.4004201723610816
0.05278833587722686 0.20284566323667455 0.4013995738092918
0.047695689357375635 0.19152709127067066 0.3803754781034386
0.045326137194130575 0.19046943028616495 0.3794923577078494
0.044365458844883555 0.19566249709959146 0.3908993885788994
0.0427853857833793 0.19891738966145192 0.39824490554682807
0.04150466166493963 0.20462138305345534 0.41025046609184157
0.039593570635613584 0.20848542538708853 0.41827842311905455
0.036483758335995695 0.21145997473607514 0.4239101593802475
0.033656599361774904 0.21272173784615217 0.42575319537072626
0.0306252654306436 0.21298293428652879 0.42531304531060105
0.02786201100454778 0.21523518266603023 0.4285867392314249
0.025222659821917758 0.21856614524692305 0.4337604776598933
0.022113883880631305 0.21713768604263203 0.4293058326990068
0.019956694104438875 0.22531056306237843 0.4436433105086456
0.018109994941103838 0.23636741182138737 0.4634665084069123
0.016163821523529135 0.24839873560169973 0.4849395121322801
0.014644217610518437 0.2661688791862394 0.5174508803630102
0.013041675428366714 0.28410599529463876 0.5500703370627812
0.011175717667714096 0.2962842802869255 0.5714081878511487
0.00940024283850713 0.30878258665926434 0.5933107551977339
0.007603422340325263 0.31627843795437083 0.6056136418233662
0.005670245649569238 0.32822241651769213 0.6259588558929127
0.0050247714829292035 0.3953219759609246 0.751739470637025
0.0038916015679499555 0.442739522956916 0.8397158210287904
0.002950487074041204 0.5419162323265356 1.0254401069340744
0.0015158707182764723 0.5829337518068131 1.1008130551285187
0.00011169739160305574 0.6088681039848747 1.1477562814164137
-0.0011901552310122092 0.6355333404288384 1.1962028218127965
-0.0023633293465067243 0.6527650256007025 1.2270508920252783
-0.0034821817159013902 0.683364002329602 1.2831804290214146
0.002874517404513416 0.0037316413906349 0.005684285638718474
0.01529432097632406 0.026629644932818497 0.04095965732305209
0.02805121986481163 0.05652074101478211 0.08801606748471383
0.04040262015707462 0.08712286261659738 0.13785210833870065
0.0480442198281521 0.10668807283512198 0.17202528608507198
0.05593592282164355 0.12600204160877884 0.2079034802228149
0.057498777336633354 0.13168202728091524 0.22183692500659302
0.05765956606317217 0.13398569835900645 0.2303628288483277
0.05788987026917957 0.13666813949005946 0.2396359274273215
0.06018302548391855 0.14498622668397806 0.25892200086114936
0.06530857464879594 0.16150935956009022 0.2933217942008843
0.06774059912358359 0.17291363554951977 0.31842450303951364
0.07152724340826468 0.19018705400403377 0.35483773438413685
0.07109913695610803 0.1974536814597669 0.3725236001667597
0.06715383942336349 0.19513393126725329 0.37167568219803093
0.0633176518620925 0.19267799815108683 0.37002125921285384
0.05840184668658793 0.1861273431668415 0.35998347921473933
0.05342097965902712 0.1790482706164302 0.3498157698016405
0.05135400794660858 0.18047587902626588 0.35421460940586685
0.05524871211563195 0.20315224022609846 0.4004201723610816
0.05278833587722686 0.20284566323667455 0.4013995738092918
0.047695689357375635 0.19152709127067066 0.3803754781034386
0.045326137194130575 0.19046943028616495 0.3794923577078494
0.044365458844883555 0.19566249709959146 0.3908993885788994
0.0427853857833793 0.19891738966145192 0.39824490554682807
0.04150466166493963 0.20462138305345534 0.41025046609184157
0.039593570635613584 0.20848542538708853 0.41827842311905455
0.036483758335995695 0.21145997473607514 0.4239101593802475