# vtk DataFile Version 4.0
[MyVLM domain - lattices] 
ASCII
DATASET UNSTRUCTURED_GRID
POINTS 152 float
0.0018916144324157278 0.00228678755842286 -0.009861066134098796
0.0010688609733395774 0.005609090035225617 -0.012524696102366782
0.00045780959861706216 0.008862808952490838 -0.015155618324214198
-0.00013255382275044122 0.01210586182709767 -0.01762962828387498
-0.0007201482309470062 0.015313931445431897 -0.019998874414232332
-0.0011946371146526612 0.018550234154347305 -0.02212778882196897
-0.0014108622120167862 0.021943170628302453 -0.023741015372110423
-0.0013224843579428829 0.025385698066049955 -0.02506810809272245
-0.0010167791708201568 0.028721572953007358 -0.02644413228211184
-0.0006138083932142036 0.03205529995403874 -0.027644976963252067
-0.00020084691410191335 0.03533862408968753 -0.02877412527353677
0.0001698744379422134 0.03851092229920474 -0.02996158378628461
0.0004739400232210948 0.04160332682938613 -0.031140589182791112
0.0007082255455298663 0.04465041000772754 -0.032237000867483295
0.0008836440760600275 0.047647203385117194 -0.033261473713865584
0.001017516815515788 0.05056867068296356 -0.0342676981946413
0.0011275777072549662 0.053391881079135346 -0.035304849616563994
0.0012277625198140337 0.05611110433313087 -0.036385216520045664
0.00132638558954348 0.058740635629562936 -0.03747814278275428
0.0014271324949937316 0.06130153166062875 -0.038538472182549806
0.0015306083418583354 0.06380769253802376 -0.039536395833705544
0.0016355657532635378 0.06625943377266971 -0.04047123712086631
0.0017398364473795213 0.06864824434952499 -0.04136124797468939
0.0018410131526058282 0.07096427940780628 -0.04222754076725606
0.001936923789896676 0.0732003034127251 -0.043085632152993804
0.0020259353317291845 0.07535227494909466 -0.04394418897473936
0.0021071205190511294 0.07741912520816266 -0.044805503300258745
0.002180316672546981 0.0794023972598732 -0.04566626600537795
0.0022461021518325993 0.08130579760834965 -0.046518528466353605
0.0023056987632523672 0.08313463937492614 -0.04735089665771506
0.0023607022647827588 0.08489472597423346 -0.04815092511662405
0.0024126938092907785 0.08659085220452505 -0.04890833136504366
0.0024629658139780817 0.0882258507055213 -0.04961704078749013
0.0025123806343549317 0.08980023036474455 -0.050275962071150086
0.0025613283706516186 0.09131224375140595 -0.050888842593443326
0.0026097549007438213 0.0927582449578425 -0.05146350102858468
0.0026572361369983943 0.0941332277595813 -0.0520106732596019
0.002703078927872171 0.0954318115134066 -0.052541898113108006
0.0027464329900004744 0.0966506136521666 -0.053064429527769026
0.0027864017842759935 0.0977902161212177 -0.0535770195177409
0.0028221433614242725 0.09885535907541196 -0.05406950278813905
0.0028529549202113143 0.0998539338176836 -0.0545249563852092
0.002878337166053322 0.10079563595216662 -0.05492258801878747
0.0028980365508205295 0.10169239540706504 -0.055236813875279185
0.0029120651374179955 0.10255892566412335 -0.05543608079125844
0.002920699186668212 0.10341021569415056 -0.055488244815094026
0.0029244586304951574 0.10425753634669284 -0.0553691355319342
0.002924070395798875 0.10510475955388905 -0.05507044955651138
0.0029204190990956736 0.10594603700809224 -0.05460472862504774
0.0029144889643634465 0.10676528844300745 -0.054006456979896464
0.002907300946956263 0.1075375028454045 -0.05332927091201854
0.006212993241944028 0.008455036031203038 0.0033667854032006935
0.0072288922610571306 0.013494145906554091 0.004384860782301513
0.007974780507892725 0.01782657521959058 0.004067240469411159
0.008270023946844132 0.021690205910895682 0.002924063932374519
0.008140225139500825 0.02519552114452817 0.001192263081115403
0.007751519283975376 0.02850502128509626 -0.0007796789278785368
0.007318662739924205 0.03181691199187492 -0.0025667086866079706
0.0069707766105224795 0.03507066391259688 -0.004298631809904026
0.006702226685381192 0.03814132296987009 -0.006243413181479845
0.006460614097576536 0.04115619012066677 -0.00812805501812103
0.006208498480286784 0.04408489978018074 -0.010017676526589714
0.005928720355726676 0.046881016104241925 -0.012011859696068343
0.00562110152420414 0.04958679518625949 -0.014019986041807264
0.005297776270156929 0.05224555503333139 -0.015949159797802242
0.004977662142563614 0.05485920819762428 -0.017795279482696026
0.004680078492205027 0.057408166718036086 -0.019600351614630696
0.0044193472589770496 0.059873908109913034 -0.021404097790131346
0.0042022226504668725 0.062254286620758686 -0.023211119590276205
0.004028605706719037 0.06456639768376332 -0.02498475574027968
0.003894567528214928 0.06683325619027214 -0.02667565064637718
0.003794542923454683 0.06906991041375882 -0.028251533181962704
0.0037223892098821663 0.07127711539790525 -0.029710784150635144
0.0036720478837599236 0.0734461956360978 -0.03107200823636634
0.0036379885391020494 0.07556663594524021 -0.03235775532207668
0.003615480687410345 0.07763011711445413 -0.03358586601306795
0.003600729157216099 0.07963118768640358 -0.03476803099732398
0.0035909263662617956 0.08156712228357435 -0.03591009486578505
0.003584242976167935 0.083437633755908 -0.03701267341373866
0.00357976601221264 0.08524449121308818 -0.03807197277322516
0.003577378730160166 0.08699102356456179 -0.039080854074897836
0.0035774796054096774 0.08868105714809711 -0.040031111710932446
0.003580588564800478 0.09031746419373635 -0.04091658616412622
0.0035870678637920984 0.09190125009214613 -0.041735121367236665
0.0035969747054953923 0.09343122590649577 -0.042489267003525316
0.0036100119296844893 0.09490410314192638 -0.043186075272975084
0.0036255480079795204 0.0963148722214613 -0.04383628924808126
0.0036426825552804717 0.0976573547700842 -0.04445315849682383
0.0036603380175139954 0.09892519742499231 -0.0450503078497019
0.003677362157174432 0.10011424642300305 -0.045636645080606615
0.0036926294639041822 0.10122451078134498 -0.04621215085202899
0.0037051326977571345 0.10226034792681427 -0.04676748063204895
0.003714058455611533 0.10322944434123381 -0.04728615070720299
0.003718842962038476 0.10414145282047566 -0.04774746058994118
0.003719206248598144 0.10500840365137867 -0.04812561124688187
0.003715164522496519 0.10584523270539187 -0.048388572598338904
0.0037070218583473346 0.10666725061213678 -0.048503510893131374
0.003695343396461056 0.10748612541617067 -0.048445403928957534
0.003680913018392471 0.10830617771410786 -0.04820498615647722
0.0036646790161518838 0.1091220355420312 -0.04779377778948748
0.003647691596346039 0.10991809971858615 -0.047245231380357404
0.0036310361855396924 0.11066982350459434 -0.04661198758113096
0.005410766489344848 0.009217927925864984 0.00010864704000513025
0.005892211109850776 0.01355425779576881 -0.00029050133393036906
0.006132458642509649 0.01743987677138091 -0.001476416675341518
0.006047255650667177 0.02100962180485014 -0.0031599402072046917
0.005720055990603616 0.02437072411108156 -0.005111113847061339
0.005325630843128663 0.027682400576695413 -0.006988495879692365
0.005016871435172548 0.030998949550970982 -0.00867564311929611
0.004834968294868498 0.034217903958307275 -0.010392296918623237
0.004732241848104854 0.03733367652233209 -0.012150439230520815
0.00464908530328423 0.040389649218283606 -0.013857037108865133
0.004547585503985086 0.04334341175527003 -0.015603039715974444
0.004411660012619469 0.04618971037501189 -0.01739971377283782
0.004242349868979272 0.04896884843698578 -0.019160628446137865
0.00405227310746894 0.05170148788571398 -0.02084147405285546
0.003859297849485217 0.054377249851882734 -0.02246450815006088
0.0036804214720396232 0.056975847030743286 -0.024073237003186428
0.003527506244425096 0.05948594620053516 -0.025691964784729043
0.003405829147614405 0.06191422410953248 -0.027306373161808454
0.003315379723667389 0.06428014111403726 -0.02887472926565934
0.003253134023982613 0.06660234050134319 -0.030357052437659376
0.003214621311891553 0.06888852546821071 -0.03173682311904567
0.0031948391851961662 0.07113470140302548 -0.03302260778207002
0.0031888698585714084 0.07333137731266817 -0.03423475992715932
0.0031922930777549615 0.0754693552499518 -0.035393004615710474
0.003201436081938149 0.07754206159554912 -0.03651143901986362
0.0032135028026517493 0.07954579125839889 -0.03759800873304065
0.003226618152360912 0.08147947382331037 -0.03865500926802598
0.0032398057236901635 0.08334432122190143 -0.03967984162907788
0.003252904392775423 0.08514337266452822 -0.04066598820855471
0.003266372004343082 0.08688070093589205 -0.041604714891478746
0.0032809500730880004 0.08856014277553237 -0.042487793763355465
0.0032973286136308236 0.09018410572096172 -0.04331006184332781
0.0033159342695244357 0.09175293863327395 -0.04407077099636578
0.0033368336138182735 0.09326480765767713 -0.04477385393676183
0.0033597203855484335 0.09471592684992644 -0.04542742964814963
0.0033839603409402744 0.09610101921150754 -0.046042814690362734
0.003408672097906746 0.09741408698227719 -0.04663287130153589
0.0034328265552422406 0.09865009458869492 -0.04720839830397532
0.0034553512046890385 0.09980713767330356 -0.0477734796054271
0.003475228953835527 0.10088751891513843 -0.048323177094764226
0.0034915839677176984 0.101897333712155 -0.048844419148888006
0.0035037495424018335 0.10284528265687232 -0.049318547286928645
0.0035113151685979642 0.10374220009684935 -0.049722327175566974
0.003514151750190315 0.10460152876768751 -0.050026930775274994
0.003512415433327221 0.10543832391385748 -0.050200072010095416
0.0035065316976985676 0.10626598501572072 -0.05021301560166187
0.0034971622838568268 0.1070924006614272 -0.05004884441809373
0.003485158199815951 0.10791692954129982 -0.049708933752431655
0.0034715024876191118 0.108728966404119 -0.04921602663930986
0.003457246657122113 0.10950832011974418 -0.04861342309704751

CELLS 100 350
4 0 51 52 1
4 1 52 53 2
4 2 53 54 3
4 3 54 55 4
4 4 55 56 5
4 5 56 57 6
4 6 57 58 7
4 7 58 59 8
4 8 59 60 9
4 9 60 61 10
4 10 61 62 11
4 11 62 63 12
4 12 63 64 13
4 13 64 65 14
4 14 65 66 15
4 15 66 67 16
4 16 67 68 17
4 17 68 69 18
4 18 69 70 19
4 19 70 71 20
4 20 71 72 21
4 21 72 73 22
4 22 73 74 23
4 23 74 75 24
4 24 75 76 25
4 25 76 77 26
4 26 77 78 27
4 27 78 79 28
4 28 79 80 29
4 29 80 81 30
4 30 81 82 31
4 31 82 83 32
4 32 83 84 33
4 33 84 85 34
4 34 85 86 35
4 35 86 87 36
4 36 87 88 37
4 37 88 89 38
4 38 89 90 39
4 39 90 91 40
4 40 91 92 41
4 41 92 93 42
4 42 93 94 43
4 43 94 95 44
4 44 95 96 45
4 45 96 97 46
4 46 97 98 47
4 47 98 99 48
4 48 99 100 49
4 49 100 101 50
1 102
1 103
1 104
1 105
1 106
1 107
1 108
1 109
1 110
1 111
1 112
1 113
1 114
1 115
1 116
1 117
1 118
1 119
1 120
1 121
1 122
1 123
1 124
1 125
1 126
1 127
1 128
1 129
1 130
1 131
1 132
1 133
1 134
1 135
1 136
1 137
1 138
1 139
1 140
1 141
1 142
1 143
1 144
1 145
1 146
1 147
1 148
1 149
1 150
1 151

CELL_TYPES 100
9
9
9
9
9
9
9
9
9
9
9
9
9
9
9
9
9
9
9
9
9
9
9
9
9
9
9
9
9
9
9
9
9
9
9
9
9
9
9
9
9
9
9
9
9
9
9
9
9
9
1
1
1
1
1
1
1
1
1
1
1
1
1
1
1
1
1
1
1
1
1
1
1
1
1
1
1
1
1
1
1
1
1
1
1
1
1
1
1
1
1
1
1
1
1
1
1
1
1
1

CELL_DATA 100

VECTORS S float
2.5468025773152958e-17 9.93194027378231e-18 -2.286179074690982e-17
1.8808238813999999e-22 -8.349303695794e-20 3.183093358e-20
-3.5912212372509997e-19 -9.77210429953914e-18 3.83779179363424e-18
3.4915716234519996e-20 -2.00299130829351e-18 7.302536010190199e-19
-9.83993777985e-21 -1.4005904373832578e-17 5.08273218571491e-18
1.3554568117969998e-20 4.15136299551311e-18 -1.4780331226301299e-18
7.36926417407e-20 1.472706150340436e-17 -5.1417223821417494e-18
-1.5907894682422e-19 -2.47295969249038e-17 8.47404228541193e-18
-3.9919860697209e-19 -5.1982785918643975e-17 1.747140548306687e-17
-9.459393784208999e-20 -1.080286600269438e-17 3.56482903222839e-18
-6.903187793537e-20 -7.1608459387777e-18 2.3228475235310398e-18
1.25392332623187e-18 1.208685326013992e-16 -3.860171775911462e-17
-8.5136318255904995e-19 -7.793960394242889e-17 2.455107813042178e-17
6.9411003044934e-19 6.08233850180611e-17 -1.893209586211756e-17
-5.775322874615799e-19 -5.0231610032130925e-17 1.547150485716436e-17
-1.0225773344752099e-18 -8.888957086217977e-17 2.708805469032248e-17
9.8987160188591e-19 8.67719509721308e-17 -2.623040776551442e-17
1.3425906919771099e-18 1.2021663634708834e-16 -3.608468142642605e-17
-9.984259510686e-19 -9.069361588947838e-17 2.7055871052375438e-17
1.05363567044385e-18 9.457737960335378e-17 -2.8065227188743296e-17
-9.9145701126068e-19 -9.130376553058157e-17 2.6962721513239e-17
7.590734605330599e-19 7.49814168379421e-17 -2.211638036512657e-17
8.2155031383935e-19 8.30018809177756e-17 -2.4387357755896797e-17
8.10404646453e-20 8.36986813234097e-18 -2.45189564886525e-18
2.0039077347021e-19 2.1354652549167e-17 -6.2430477861001e-18
8.619452585346e-20 9.52486533884295e-18 -2.78188595063298e-18
-6.1038304031952e-19 -7.130093031237197e-17 2.082589728785977e-17
5.1797783423627e-19 6.444028608195104e-17 -1.884790478754836e-17
-3.2210812409807996e-19 -4.30826290017765e-17 1.2630765324904849e-17
4.2888685853974996e-19 6.225801042108193e-17 -1.831194309932626e-17
4.1810322650392e-19 6.499892038268646e-17 -1.918156233222079e-17
2.111315489361e-19 3.61073670198983e-17 -1.0705747545413469e-17
-5.749211471815999e-20 -1.076435055517473e-17 3.2081210896419498e-18
-5.896223473582e-20 -1.186163153113668e-17 3.5545713351894e-18
1.307349506364e-19 2.806094022213129e-17 -8.45663609027796e-18
-1.192098068811e-20 -2.7190406205137e-18 8.239205120514599e-19
1.4219919431297998e-19 3.3778696795944857e-17 -1.029302943112513e-17
-4.801935627993e-20 -1.17824653422931e-17 3.60988137580602e-18
-5.464035900476e-20 -1.391827683552487e-17 4.28643671340908e-18
1.5135657710815999e-19 3.92717790863734e-17 -1.215419494197709e-17
4.1004129202e-20 1.0943330259101369e-17 -3.40245093274175e-18
-6.853921937741e-20 -1.8209306621362338e-17 5.68575166101328e-18
4.6019562033199997e-20 9.98855581507961e-18 -3.13118417030052e-18
-1.7669677441623e-19 -3.119347699463128e-17 9.796124638492429e-18
2.3440292061887e-19 3.0835688358229376e-17 -9.715673315361019e-18
4.2942455174828996e-19 4.5720977455379787e-17 -1.444713140223437e-17
1.40007640668812e-18 1.2538534317812374e-16 -3.9718173031330955e-17
4.3560058736094e-19 3.0815137803580406e-17 -9.7821010539105e-18
2.5195615021608e-19 1.358120684954016e-17 -4.31908701963255e-18
-4.54798423734144e-18 -1.2965064088951185e-16 4.1297619736741416e-17
2.5468025773152958e-17 9.93194027378231e-18 -2.286179074690982e-17
1.8808238813999999e-22 -8.349303695794e-20 3.183093358e-20
-3.5912212372509997e-19 -9.77210429953914e-18 3.83779179363424e-18
3.4915716234519996e-20 -2.00299130829351e-18 7.302536010190199e-19
-9.83993777985e-21 -1.4005904373832578e-17 5.08273218571491e-18
1.3554568117969998e-20 4.15136299551311e-18 -1.4780331226301299e-18
7.36926417407e-20 1.472706150340436e-17 -5.1417223821417494e-18
-1.5907894682422e-19 -2.47295969249038e-17 8.47404228541193e-18
-3.9919860697209e-19 -5.1982785918643975e-17 1.747140548306687e-17
-9.459393784208999e-20 -1.080286600269438e-17 3.56482903222839e-18
-6.903187793537e-20 -7.1608459387777e-18 2.3228475235310398e-18
1.25392332623187e-18 1.208685326013992e-16 -3.860171775911462e-17
-8.5136318255904995e-19 -7.793960394242889e-17 2.455107813042178e-17
6.9411003044934e-19 6.08233850180611e-17 -1.893209586211756e-17
-5.775322874615799e-19 -5.0231610032130925e-17 1.547150485716436e-17
-1.0225773344752099e-18 -8.888957086217977e-17 2.708805469032248e-17
9.8987160188591e-19 8.67719509721308e-17 -2.623040776551442e-17
1.3425906919771099e-18 1.2021663634708834e-16 -3.608468142642605e-17
-9.984259510686e-19 -9.069361588947838e-17 2.7055871052375438e-17
1.05363567044385e-18 9.457737960335378e-17 -2.8065227188743296e-17
-9.9145701126068e-19 -9.130376553058157e-17 2.6962721513239e-17
7.590734605330599e-19 7.49814168379421e-17 -2.211638036512657e-17
8.2155031383935e-19 8.30018809177756e-17 -2.4387357755896797e-17
8.10404646453e-20 8.36986813234097e-18 -2.45189564886525e-18
2.0039077347021e-19 2.1354652549167e-17 -6.2430477861001e-18
8.619452585346e-20 9.52486533884295e-18 -2.78188595063298e-18
-6.1038304031952e-19 -7.130093031237197e-17 2.082589728785977e-17
5.1797783423627e-19 6.444028608195104e-17 -1.884790478754836e-17
-3.2210812409807996e-19 -4.30826290017765e-17 1.2630765324904849e-17
4.2888685853974996e-19 6.225801042108193e-17 -1.831194309932626e-17
4.1810322650392e-19 6.499892038268646e-17 -1.918156233222079e-17
2.111315489361e-19 3.61073670198983e-17 -1.0705747545413469e-17
-5.749211471815999e-20 -1.076435055517473e-17 3.2081210896419498e-18
-5.896223473582e-20 -1.186163153113668e-17 3.5545713351894e-18
1.307349506364e-19 2.806094022213129e-17 -8.45663609027796e-18
-1.192098068811e-20 -2.7190406205137e-18 8.239205120514599e-19
1.4219919431297998e-19 3.3778696795944857e-17 -1.029302943112513e-17
-4.801935627993e-20 -1.17824653422931e-17 3.60988137580602e-18
-5.464035900476e-20 -1.391827683552487e-17 4.28643671340908e-18
1.5135657710815999e-19 3.92717790863734e-17 -1.215419494197709e-17
4.1004129202e-20 1.0943330259101369e-17 -3.40245093274175e-18
-6.853921937741e-20 -1.8209306621362338e-17 5.68575166101328e-18
4.6019562033199997e-20 9.98855581507961e-18 -3.13118417030052e-18
-1.7669677441623e-19 -3.119347699463128e-17 9.796124638492429e-18
2.3440292061887e-19 3.0835688358229376e-17 -9.715673315361019e-18
4.2942455174828996e-19 4.5720977455379787e-17 -1.444713140223437e-17
1.40007640668812e-18 1.2538534317812374e-16 -3.9718173031330955e-17
4.3560058736094e-19 3.0815137803580406e-17 -9.7821010539105e-18
2.5195615021608e-19 1.358120684954016e-17 -4.31908701963255e-18
-4.54798423734144e-18 -1.2965064088951185e-16 4.1297619736741416e-17

SCALARS Gamma float
LOOKUP_TABLE default
-0.00010423703673790573
0.002130803037802654
-0.0024515062185486826
0.003793544136612423
0.03382926119291154
0.07660755614121134
0.12360206835738956
0.16596506219473137
0.2113027061984811
0.2433302753251876
0.26148217213369207
0.2697010121127622
0.26867798388164194
0.24446821870223034
0.23376969889500784
0.2285870559789223
0.21882365790069128
0.21529909856257673
0.211471919764377
0.2049105921830815
0.20486105480720498
0.2065154031928322
0.19943548533533811
0.1957219165264471
0.19250497971099098
0.19104440825238186
0.19223071017517537
0.19267118636656927
0.19382605917224324
0.19555246725845363
0.1932603489076534
0.1990233214989385
0.19666393283349187
0.19426375538226728
0.19164830807924063
0.18861452701369583
0.1848248718012575
0.1804976012347313
0.17574098344364214
0.16826571851479746
0.16222100834257924
0.1512725886677587
0.13559775578409494
0.11633774036399369
0.09977526226418956
0.0831570556476368
0.07070295609897001
0.05674382871150092
0.04339468283172463
0.023628727528677805
-0.00010423703673790573
0.002130803037802654
-0.0024515062185486826
0.003793544136612423
0.03382926119291154
0.07660755614121134
0.12360206835738956
0.16596506219473137
0.2113027061984811
0.2433302753251876
0.26148217213369207
0.2697010121127622
0.26867798388164194
0.24446821870223034
0.23376969889500784
0.2285870559789223
0.21882365790069128
0.21529909856257673
0.211471919764377
0.2049105921830815
0.20486105480720498
0.2065154031928322
0.19943548533533811
0.1957219165264471
0.19250497971099098
0.19104440825238186
0.19223071017517537
0.19267118636656927
0.19382605917224324
0.19555246725845363
0.1932603489076534
0.1990233214989385
0.19666393283349187
0.19426375538226728
0.19164830807924063
0.18861452701369583
0.1848248718012575
0.1804976012347313
0.17574098344364214
0.16826571851479746
0.16222100834257924
0.1512725886677587
0.13559775578409494
0.11633774036399369
0.09977526226418956
0.0831570556476368
0.07070295609897001
0.05674382871150092
0.04339468283172463
0.023628727528677805

VECTORS Ftot float
0.041258431371326496 0.01987073681212382 0.05459440069923533
-0.01800586063618321 0.0008548239276543319 0.0023486094388397633
0.05828721228067947 0.027109298058971054 0.0744821842742872
-0.0045316526746957166 0.04703545295902067 0.129228844918728
-0.4373567746069264 0.104423831663646 0.28690211954879485
-1.222598535387342 0.1831130180252599 0.5030988822325834
-2.27513653757593 0.27929721361387566 0.7673627877207092
-3.4314172748708014 0.3771469033983357 1.0362026009041498
-4.834928963066054 0.48488880299171605 1.3322210371661063
-6.086636461636384 0.5708616418391063 1.5684294705857196
-7.084524657772419 0.6279032643630541 1.7251500404393187
-7.853914784986051 0.6649168953442153 1.8268441557720843
-8.35663367626562 0.6784743433817404 1.8640929381206135
-8.074291353381946 0.6362992193608353 1.7482177372104797
-8.168125852374454 0.6107401003074814 1.6779946347502381
-8.417661582358694 0.5950406025603981 1.6348606191933488
-8.457901736543928 0.5693656987492351 1.5643194007255097
-8.707365604563492 0.554711510788495 1.5240573502029326
-8.919511883136527 0.5444034577738968 1.4957362073067832
-8.983191574120903 0.5418237196330058 1.4886484350165796
-9.318929815517054 0.5364119243802964 1.473779649761049
-9.72522827758067 0.5192430884927901 1.4266086608418036
-9.701172293208517 0.498182170428021 1.3687442640258674
-9.814645717561776 0.4869674108289816 1.337931965262895
-9.934611144128269 0.4737732186022042 1.3016812200518808
-10.12968660770357 0.46400869184801763 1.274853403283093
-10.461418288384575 0.4534412689900328 1.2458196475989511
-10.741542050340339 0.4396207081505377 1.2078479687682402
-11.0542929117506 0.42490761193907656 1.1674240691569875
-11.39369240856373 0.4090455035913382 1.1238432846466342
-11.486174103302226 0.39050269598919435 1.0728973394664532
-12.053818812657253 0.38020703936260003 1.0446102553664272
-12.122820051702652 0.3573985329055041 0.9819443989040719
-12.173477093245967 0.34252739103744123 0.9410862724200634
-12.195881207068444 0.33034707509783756 0.9076211294141795
-12.177333007468112 0.31880904586813413 0.875920654640562
-12.094170490750338 0.31275399165006457 0.8592845299028427
-11.960328044011849 0.3080497419390138 0.8463597100462549
-11.78267372017691 0.3006504636064457 0.8260303599072645
-11.405211931527086 0.2936603460537024 0.806825169771769
-11.107516029916097 0.28552011562833335 0.7844600704889102
-10.454951224499837 0.2769013239342802 0.7607801349265165
-9.450476802676874 0.3138539566368551 0.8623066588662402
-8.171213699787684 0.33743378177919253 0.9270916959995001
-7.055881223721796 0.3992952944843901 1.097054805290334
-5.917239426480088 0.4215474317028277 1.1581920498325964
-5.058994992308265 0.43559260507276426 1.1967808465188219
-4.079580992081287 0.45114283212328776 1.239504744207527
-3.1324885563866305 0.4603078675625867 1.264685472125502
-1.710308114878278 0.4805560247398361 1.3203168267555625
0.041258431371326496 0.01987073681212382 0.05459440069923533
-0.01800586063618321 0.0008548239276543319 0.0023486094388397633
0.05828721228067947 0.027109298058971054 0.0744821842742872
-0.0045316526746957166 0.04703545295902067 0.129228844918728
-0.4373567746069264 0.104423831663646 0.28690211954879485
-1.222598535387342 0.1831130180252599 0.5030988822325834
-2.27513653757593 0.27929721361387566 0.7673627877207092
-3.4314172748708014 0.3771469033983357 1.0362026009041498
-4.834928963066054 0.48488880299171605 1.3322210371661063
-6.086636461636384 0.5708616418391063 1.5684294705857196
-7.084524657772419 0.6279032643630541 1.7251500404393187
-7.853914784986051 0.6649168953442153 1.8268441557720843
-8.35663367626562 0.6784743433817404 1.8640929381206135
-8.074291353381946 0.6362992193608353 1.7482177372104797
-8.168125852374454 0.6107401003074814 1.6779946347502381
-8.417661582358694 0.5950406025603981 1.6348606191933488
-8.457901736543928 0.5693656987492351 1.5643194007255097
-8.707365604563492 0.554711510788495 1.5240573502029326
-8.919511883136527 0.5444034577738968 1.4957362073067832
-8.983191574120903 0.5418237196330058 1.4886484350165796
-9.318929815517054 0.5364119243802964 1.473779649761049
-9.72522827758067 0.5192430884927901 1.4266086608418036
-9.701172293208517 0.498182170428021 1.3687442640258674
-9.814645717561776 0.4869674108289816 1.337931965262895
-9.934611144128269 0.4737732186022042 1.3016812200518808
-10.12968660770357 0.46400869184801763 1.274853403283093
-10.461418288384575 0.4534412689900328 1.2458196475989511
-10.741542050340339 0.4396207081505377 1.2078479687682402
-11.0542929117506 0.42490761193907656 1.1674240691569875
-11.39369240856373 0.4090455035913382 1.1238432846466342
-11.486174103302226 0.39050269598919435 1.0728973394664532
-12.053818812657253 0.38020703936260003 1.0446102553664272
-12.122820051702652 0.3573985329055041 0.9819443989040719
-12.173477093245967 0.34252739103744123 0.9410862724200634
-12.195881207068444 0.33034707509783756 0.9076211294141795
-12.177333007468112 0.31880904586813413 0.875920654640562
-12.094170490750338 0.31275399165006457 0.8592845299028427
-11.960328044011849 0.3080497419390138 0.8463597100462549
-11.78267372017691 0.3006504636064457 0.8260303599072645
-11.405211931527086 0.2936603460537024 0.806825169771769
-11.107516029916097 0.28552011562833335 0.7844600704889102
-10.454951224499837 0.2769013239342802 0.7607801349265165
-9.450476802676874 0.3138539566368551 0.8623066588662402
-8.171213699787684 0.33743378177919253 0.9270916959995001
-7.055881223721796 0.3992952944843901 1.097054805290334
-5.917239426480088 0.4215474317028277 1.1581920498325964
-5.058994992308265 0.43559260507276426 1.1967808465188219
-4.079580992081287 0.45114283212328776 1.239504744207527
-3.1324885563866305 0.4603078675625867 1.264685472125502
-1.710308114878278 0.4805560247398361 1.3203168267555625

VECTORS D float
0.04074256248943434 0.021041178634277336 0.05452820274804308
-0.0024726455934113985 -0.0018118878346655935 -0.004737999797464043
0.034556895408857126 0.03125552237971032 0.08281907601837354
0.04108851553467049 0.04248081576348979 0.1145548199664446
0.04793667373639497 0.05422820023616363 0.14952325894636853
0.05056568911075961 0.06102593697061349 0.17186774010298897
0.055305375699314596 0.07024613194685023 0.2019935398306445
0.06175977173954246 0.08210509051631804 0.24076472652349282
0.06669555460696582 0.0919382931835968 0.2750685049028562
0.07073656106645895 0.10097940626507314 0.30788524073700646
0.07290166430767553 0.1079522269691485 0.3349603437091086
0.07586082410977216 0.11692563263705452 0.36857824270967876
0.07744108713587312 0.12469708254549319 0.3985475368860647
0.07551404785102564 0.12740188553649912 0.4120742389476824
0.06975625675596017 0.12354607749361428 0.40372316292783045
0.06492051834649536 0.12093459147038628 0.39929815235729677
0.06011962528186325 0.11759044406828177 0.3912658563684094
0.05546353053159739 0.11386709228779146 0.3814134724553348
0.05330722703086459 0.11482585718877779 0.38687335124578215
0.05618521192543791 0.12696773092352692 0.4299795596597601
0.053604127294585115 0.127146523933143 0.4325269091005028
0.04764914715356692 0.12080445281185553 0.4112001188732724
0.04505316751802821 0.12031419556940434 0.4110046720768652
0.04388537875007972 0.12387832775979576 0.42432546416522543
0.04210399340717865 0.12622690833287376 0.4331168227847627
0.04066781101539586 0.13024948323538016 0.4472196750825695
0.03840062981868113 0.13320043977068338 0.4571593835909165
0.035741057109356475 0.1344162546412146 0.46054641491151965
0.03292198101446065 0.13513853097014855 0.46178734867929266
0.029977562061114817 0.135185653426758 0.4603141652702641
0.02754038799917914 0.13652748747473928 0.4632393263699115
0.025121358370855076 0.13882313007902183 0.4687053938674531
0.022278395423679084 0.1380030378839512 0.46344694230144573
0.020493325761791834 0.14306518826743425 0.4777495569250133
0.01892206581927051 0.1496597434749524 0.49689579234487846
0.017306939273617036 0.156413530434651 0.516434598137601
0.016105819039162906 0.16676859900209282 0.5475080211299179
0.014861516341762582 0.17734346224643413 0.5790375418034981
0.013335937075581237 0.18451309901542 0.5992933627669643
0.011876185760086097 0.19168541322748134 0.6195083078000034
0.010336782070679819 0.19580756781534173 0.6299020250250008
0.008918807089873913 0.1994539575961298 0.6388829086039405
0.009125053729356283 0.24229975662076478 0.7730763961196652
0.008281058957291414 0.2729887757677729 0.8694185351261302
0.00844898726652195 0.3343233604566826 1.0612822278521266
0.007524953474732043 0.3597011165056825 1.1385732973716889
0.006463539514819301 0.37625388186547476 1.1880146529338225
0.005492933423454036 0.3934621070478275 1.2397113572389038
0.004527069015633648 0.4042285686275372 1.2713456346087277
0.0037586094591390575 0.42456837969863653 1.3333130814059129
0.04074256248943434 0.021041178634277336 0.05452820274804308
-0.0024726455934113985 -0.0018118878346655935 -0.004737999797464043
0.034556895408857126 0.03125552237971032 0.08281907601837354
0.04108851553467049 0.04248081576348979 0.1145548199664446
0.04793667373639497 0.05422820023616363 0.14952325894636853
0.05056568911075961 0.06102593697061349 0.17186774010298897
0.055305375699314596 0.07024613194685023 0.2019935398306445
0.06175977173954246 0.08210509051631804 0.24076472652349282
0.06669555460696582 0.0919382931835968 0.2750685049028562
0.07073656106645895 0.10097940626507314 0.30788524073700646
0.07290166430767553 0.1079522269691485 0.3349603437091086
0.07586082410977216 0.11692563263705452 0.36857824270967876
0.07744108713587312 0.12469708254549319 0.3985475368860647
0.07551404785102564 0.12740188553649912 0.4120742389476824
0.06975625675596017 0.12354607749361428 0.40372316292783045
0.06492051834649536 0.12093459147038628 0.39929815235729677
0.06011962528186325 0.11759044406828177 0.3912658563684094
0.05546353053159739 0.11386709228779146 0.3814134724553348
0.05330722703086459 0.11482585718877779 0.38687335124578215
0.05618521192543791 0.12696773092352692 0.4299795596597601
0.053604127294585115 0.127146523933143 0.4325269091005028
0.04764914715356692 0.12080445281185553 0.4112001188732724
0.04505316751802821 0.12031419556940434 0.4110046720768652
0.04388537875007972 0.12387832775979576 0.42432546416522543
0.04210399340717865 0.12622690833287376 0.4331168227847627
0.04066781101539586 0.13024948323538016 0.4472196750825695
0.03840062981868113 0.13320043977068338 0.4571593835909165
0.035741057109356475 0.1344162546412146 0.46054641491151965