# vtk DataFile Version 4.0
[MyVLM domain - lattices] 
ASCII
DATASET UNSTRUCTURED_GRID
POINTS 152 float
0.0018916144324157278 -0.008933194281447095 -0.004761098882437421
0.0010688609733395774 -0.010646188104886819 -0.008659594812418911
0.00045780959861706216 -0.01234533940272844 -0.012483378723288235
-0.00013255382275044122 -0.013895685669038418 -0.0162562481462255
-0.0007201482309470062 -0.015353892179946326 -0.019968211464179767
-0.0011946371146526612 -0.016572648811553837 -0.023645243426525818
-0.0014108622120167862 -0.017252749421708083 -0.027340102148918896
-0.0013224843579428829 -0.01764363089025042 -0.031008805179459243
-0.0010167791708201568 -0.018109380239556303 -0.034587154152776245
-0.0006138083932142036 -0.018406475091392076 -0.03811808863455881
-0.00020084691410191335 -0.01864736178845604 -0.04158178130070721
0.0001698744379422134 -0.018973307440198296 -0.0449533229483387
0.0004739400232210948 -0.01931176601444585 -0.048245505400268736
0.0007082255455298663 -0.019582175218368848 -0.05147253396235096
0.0008836440760600275 -0.019796112798715817 -0.054632367165457774
0.001017516815515788 -0.020011919635414547 -0.057714717938379664
0.0011275777072549662 -0.02028303036076141 -0.06071016431373852
0.0012277625198140337 -0.0206227978886826 -0.0636163518125381
0.00132638558954348 -0.0209979108128527 -0.0664391541344789
0.0014271324949937316 -0.021359301699121487 -0.06918722319207575
0.0015306083418583354 -0.02167457976127682 -0.0718662703548642
0.0016355657532635378 -0.021943009778837168 -0.07447642526205192
0.0017398364473795213 -0.022184424575789972 -0.07701419085166628
0.0018410131526058282 -0.022421765175049867 -0.07947552200240238
0.001936923789896676 -0.022671892208070716 -0.08185744573002313
0.0020259353317291845 -0.022944223197400436 -0.08415830147121188
0.0021071205190511294 -0.023241248738550473 -0.08637765006678196
0.002180316672546981 -0.02355937308712931 -0.08851612554348529
0.0022461021518325993 -0.023889959148321892 -0.09057525085417273
0.0023056987632523672 -0.024220626001670496 -0.09255720908916698
0.0023607022647827588 -0.02453785021896646 -0.09446438479373288
0.0024126938092907785 -0.024830458704010263 -0.09629874808618848
0.0024629658139780817 -0.025091850687713812 -0.09806146286021743
0.0025123806343549317 -0.025320840333063508 -0.09975273821087993
0.0025613283706516186 -0.025521499597058152 -0.10137185614229284
0.0026097549007438213 -0.02570232436938903 -0.10291731859987843
0.0026572361369983943 -0.025874980422978356 -0.10438706859311975
0.002703078927872171 -0.026052006021395804 -0.10577889528785817
0.0027464329900004744 -0.02624128340414148 -0.10709140883260146
0.0027864017842759935 -0.026441456490916285 -0.1083248483408943
0.0028221433614242725 -0.026641479518506907 -0.10948116147881382
0.0028529549202113143 -0.02682296374933498 -0.11056359067693614
0.002878337166053322 -0.026963315966339847 -0.1115761197290101
0.0028980365508205295 -0.027034736410609526 -0.1125236504825891
0.0029120651374179955 -0.027002938937394583 -0.1134122285100569
0.002920699186668212 -0.026832995442543597 -0.1142480125785604
0.0029244586304951574 -0.026498641987602094 -0.11503563372906883
0.002924070395798875 -0.025990855988515648 -0.11577668288658664
0.0029204190990956736 -0.025323265485608377 -0.11646875705991055
0.0029144889643634465 -0.024533341578336684 -0.11710524908320957
0.002907300946956263 -0.023679366271927457 -0.11767588226647237
0.006212993241944028 0.005440389324427933 -0.007295549481622098
0.0072288922610571306 0.007727992232315473 -0.011899458554270692
0.007974780507892725 0.008542509786914934 -0.016166470104391872
0.008270023946844132 0.008438267251935928 -0.020194326632065978
0.008140225139500825 0.007672718425267447 -0.024028424188146703
0.007751519283975376 0.006624530376984361 -0.02773553199379407
0.007318662739924205 0.005755572570892858 -0.03139709009704247
0.0069707766105224795 0.004924796262075738 -0.034988227798567924
0.006702226685381192 0.0038410267538236537 -0.038457603143240975
0.006460614097576536 0.00280090756758724 -0.041857522387545754
0.006208498480286784 0.0017336791881039806 -0.0451755087197996
0.005928720355726676 0.0005311343193426866 -0.048392482274202724
0.00562110152420414 -0.0007082596221918484 -0.05152580551300557
0.005297776270156929 -0.0018835606917303916 -0.05459327722455615
0.004977662142563614 -0.002990312157578451 -0.057595683250897964
0.004680078492205027 -0.00407415893786988 -0.0605249751614318
0.0044193472589770496 -0.00517826312034073 -0.06337354231554608
0.0042022226504668725 -0.006307624852608363 -0.06614050305230834
0.004028605706719037 -0.007422407438838781 -0.06883288165601639
0.003894567528214928 -0.008468980344141829 -0.0714601346369612
0.003794542923454683 -0.00941227727411443 -0.07402844512895948
0.0037223892098821663 -0.010250538785450168 -0.07653812336933719
0.0036720478837599236 -0.0110039810092249 -0.07898560470874012
0.0036379885391020494 -0.011697106989379277 -0.08136656859941203
0.003615480687410345 -0.012349302597546467 -0.08367759678913947
0.003600729157216099 -0.012973271112159254 -0.08591644934719127
0.0035909263662617956 -0.013575363354156725 -0.0880820064524862
0.003584242976167935 -0.014156248456014695 -0.09017415011891516
0.00357976601221264 -0.01471180394341043 -0.09219360724992848
0.003577378730160166 -0.015234272612907124 -0.09414174564978693
0.0035774796054096774 -0.015714738126899542 -0.09602013750937942
0.003580588564800478 -0.016146507460807206 -0.09782996298952203
0.0035870678637920984 -0.01652723779934509 -0.09957163519176031
0.0035969747054953923 -0.01685969966691957 -0.10124466559789073
0.0036100119296844893 -0.0171515560907255 -0.10284770300946493
0.0036255480079795204 -0.01741448065586923 -0.10437868905846705
0.0036426825552804717 -0.017662870543371834 -0.10583508513343695
0.0036603380175139954 -0.017911530700185 -0.10721428072277907
0.003677362157174432 -0.01817014044818543 -0.10851456910089162
0.0036926294639041822 -0.01843867877494329 -0.10973595397283284
0.0037051326977571345 -0.018706991770699906 -0.11088022574685293
0.003714058455611533 -0.01895716798302214 -0.11195054269527953
0.003718842962038476 -0.019166713948958556 -0.1129508710225205
0.003719206248598144 -0.019307596048520583 -0.11388615381214677
0.003715164522496519 -0.01934500991253508 -0.1147625280134901
0.0037070218583473346 -0.01924327789022386 -0.11558628455899102
0.003695343396461056 -0.018975210478002526 -0.11636221769172347
0.003680913018392471 -0.018530739589778675 -0.11709210268690967
0.0036646790161518838 -0.0179223832641546 -0.11777373227659846
0.003647691596346039 -0.017186491550641458 -0.11840069696631098
0.0036310361855396924 -0.016380264578155754 -0.11896291083001918
0.005410766489344848 0.0024907202854870377 -0.008875714725316838
0.005892211109850776 0.003227497318759497 -0.013167594938961854
0.006132458642509649 0.0030876632555982167 -0.01722775213486091
0.006047255650667177 0.002385422397828175 -0.021111589008880414
0.005720055990603616 0.0013706506769069072 -0.024863165429565987
0.005325630843128663 0.0004143638262962182 -0.02854790148099429
0.005016871435172548 -0.00035690922663158967 -0.03218810762690117
0.004834968294868498 -0.0011819427602635692 -0.035741681519707774
0.004732241848104854 -0.0020737565458394613 -0.039206327422461905
0.00464908530328423 -0.002931259576596808 -0.04259987040716276
0.004547585503985086 -0.0038532785882892926 -0.04590488465388161
0.004411660012619469 -0.004852056170398954 -0.049119211463779046
0.004242349868979272 -0.005833675271822677 -0.0522594109469131
0.00405227310746894 -0.006749988320626399 -0.05533397281927139
0.003859297849485217 -0.007625180715059421 -0.05833863254260333
0.0036804214720396232 -0.008506527021350973 -0.061265054335381486
0.003527506244425096 -0.009420436521036413 -0.06410858152872999
0.003405829147614405 -0.010351350696984592 -0.06687195750899891
0.003315379723667389 -0.011253921982614505 -0.06956317827568594
0.003253134023982613 -0.012084706789395886 -0.07218990410558775
0.003214621311891553 -0.012825754714850972 -0.07475530013897577
0.0031948391851961662 -0.013486374217331544 -0.07725772504349378
0.0031888698585714084 -0.014088681718331547 -0.07969327909731565
0.0031922930777549615 -0.01465411076798723 -0.08205818298726
0.003201436081938149 -0.015197979566823538 -0.0843497357012784
0.0032135028026517493 -0.015728921916862357 -0.0865664148671283
0.003226618152360912 -0.016249432157024256 -0.08870778066555893
0.0032398057236901635 -0.016756686179215823 -0.09077433106302363
0.003252904392775423 -0.017243601852368135 -0.09276731483031075
0.003266372004343082 -0.01770068855500712 -0.09468840542004987
0.0032809500730880004 -0.01811900571076212 -0.09653917929707821
0.0032973286136308236 -0.01849294314652262 -0.09832062568628162
0.0033159342695244357 -0.018821687927446415 -0.10003288793000632
0.0033368336138182735 -0.01910951340038211 -0.10167521252190499
0.0033597203855484335 -0.019365241775778922 -0.1032460438682459
0.0033839603409402744 -0.019601169798761323 -0.10474321372108879
0.003408672097906746 -0.019831273771880584 -0.10616425768120326
0.0034328265552422406 -0.020067287858831072 -0.10750710669893396
0.0034553512046890385 -0.02031364969555549 -0.10877097829933365
0.003475228953835527 -0.0205649934557941 -0.10995681862234569
0.0034915839677176984 -0.020807115316126005 -0.11106713218526844
0.0035037495424018335 -0.021019740688952116 -0.1121054939449183
0.0035113151685979642 -0.02117762279617335 -0.11307635558945013
0.003514151750190315 -0.02124943665389639 -0.11398524055869458
0.003512415433327221 -0.021200099723526874 -0.11483833485075759
0.0035065316976985676 -0.020998387816853106 -0.1156411441324716
0.0034971622838568268 -0.02062591852243267 -0.11639690971894437
0.003485158199815951 -0.02008418625449048 -0.11710536810462771
0.0034715024876191118 -0.01939790393854166 -0.11776216173398106
0.003457246657122113 -0.018614122029581973 -0.11835899434233407

CELLS 100 350
4 0 51 52 1
4 1 52 53 2
4 2 53 54 3
4 3 54 55 4
4 4 55 56 5
4 5 56 57 6
4 6 57 58 7
4 7 58 59 8
4 8 59 60 9
4 9 60 61 10
4 10 61 62 11
4 11 62 63 12
4 12 63 64 13
4 13 64 65 14
4 14 65 66 15
4 15 66 67 16
4 16 67 68 17
4 17 68 69 18
4 18 69 70 19
4 19 70 71 20
4 20 71 72 21
4 21 72 73 22
4 22 73 74 23
4 23 74 75 24
4 24 75 76 25
4 25 76 77 26
4 26 77 78 27
4 27 78 79 28
4 28 79 80 29
4 29 80 81 30
4 30 81 82 31
4 31 82 83 32
4 32 83 84 33
4 33 84 85 34
4 34 85 86 35
4 35 86 87 36
4 36 87 88 37
4 37 88 89 38
4 38 89 90 39
4 39 90 91 40
4 40 91 92 41
4 41 92 93 42
4 42 93 94 43
4 43 94 95 44
4 44 95 96 45
4 45 96 97 46
4 46 97 98 47
4 47 98 99 48
4 48 99 100 49
4 49 100 101 50
1 102
1 103
1 104
1 105
1 106
1 107
1 108
1 109
1 110
1 111
1 112
1 113
1 114
1 115
1 116
1 117
1 118
1 119
1 120
1 121
1 122
1 123
1 124
1 125
1 126
1 127
1 128
1 129
1 130
1 131
1 132
1 133
1 134
1 135
1 136
1 137
1 138
1 139
1 140
1 141
1 142
1 143
1 144
1 145
1 146
1 147
1 148
1 149
1 150
1 151

CELL_TYPES 100
9
9
9
9
9
9
9
9
9
9
9
9
9
9
9
9
9
9
9
9
9
9
9
9
9
9
9
9
9
9
9
9
9
9
9
9
9
9
9
9
9
9
9
9
9
9
9
9
9
9
1
1
1
1
1
1
1
1
1
1
1
1
1
1
1
1
1
1
1
1
1
1
1
1
1
1
1
1
1
1
1
1
1
1
1
1
1
1
1
1
1
1
1
1
1
1
1
1
1
1

CELL_DATA 100

VECTORS S float
-5.0440774113572e-19 5.809011501436899e-19 -1.9360977867626e-19
3.8437733811263e-19 -2.0933311217354998e-19 2.00769796422335e-18
1.121074515108e-20 -3.545227242623e-20 -6.2537535978881e-19
1.421330687301e-20 1.306678329255e-20 4.4600901565466e-19
1.556363500501e-20 4.181590940056e-20 1.1130592234858299e-18
-2.1557685626929e-19 3.2690980150627e-19 5.9873651902794e-18
9.46312766534e-21 -2.010861909061e-20 -4.2674360819107e-19
1.173850180067e-20 -2.690747982669e-20 -6.204765712293e-19
-3.1531886447263e-19 7.5165925143994e-19 1.83574289627329e-17
7.349881700296e-20 -1.7273430197245998e-19 -4.4878414562906e-18
9.516126683137e-20 -2.1335533606404e-19 -5.94773877354741e-18
6.1649326971301e-19 -1.2775077817786299e-18 -3.858072576687178e-17
2.3865343810226e-19 -4.523968669673e-19 -1.4987311292343978e-17
1.6022779345515e-19 -2.6479296014975e-19 -9.705013525075729e-18
9.693427837653999e-20 -1.4046788592701998e-19 -5.796869365103559e-18
-1.5345614118063999e-19 1.9158990006575e-19 9.07008490259966e-18
2.4701582906596e-19 -2.5364063861104e-19 -1.404216169756635e-17
1.4066577810297e-19 -1.0953084972306e-19 -7.89202976495878e-18
-2.0613316439755998e-19 1.1929742939585e-19 1.134231113917666e-17
-4.1404114243189997e-20 1.6906328585709998e-20 2.35102144702396e-18
1.9969510405672999e-19 -4.7243133662329995e-20 -1.137945659749928e-17
2.7085578397239e-19 -2.048472082004e-20 -1.58857062393338e-17
-2.2808619961054997e-19 -1.7407642367979998e-20 1.359850951064969e-17
-1.2317836503753e-19 -2.671818007809e-20 7.47232741246682e-18
-3.2524636023846e-19 -1.3219346350584998e-19 2.0403787825884118e-17
-4.6846076233489996e-20 -2.425171892115e-20 3.0652111906881397e-18
1.1952258949536999e-19 7.225904286660999e-20 -8.17668653431996e-18
-2.2731541033225997e-19 -1.5159772358412e-19 1.627630427843338e-17
-3.94250701554e-21 -2.8129330196999998e-21 2.9873152682634e-19
1.9688969823393998e-19 1.4620782925642e-19 -1.589700537834366e-17
-1.5437555285367e-19 -1.1601521462753e-19 1.3319990360309179e-17
-2.5260011992e-22 -1.9121303587e-22 2.3837091086659998e-20
3.03035824041e-21 2.1501117764e-21 -3.2007283019595e-19
-1.3389633061492e-19 -7.539137003511e-20 1.5346367253186608e-17
4.1895592121539996e-20 1.547989029373e-20 -5.1810439655401896e-18
-3.166698250332e-20 -4.1276485788e-21 4.20860981605223e-18
1.1997969147749999e-20 -1.81742168255e-21 -1.68379673950731e-18
-6.898318102515999e-20 2.8463162349279997e-20 1.0105987210663949e-17
-3.414510690021e-20 2.6131832364939998e-20 5.2602365893410296e-18
7.677149887869e-20 -8.640120065091999e-20 -1.2235754494392999e-17
-1.413506072282e-20 2.136578592832e-20 2.3529265914039597e-18
3.3022903132709996e-20 -6.132275770803e-20 -5.5657963864676095e-18
3.400091760555e-20 -6.115932747419e-20 -4.75099539872222e-18
-3.3992021394289995e-20 5.771868747229e-20 3.94841009566969e-18
-9.026820848883e-20 1.2946570310616e-19 7.966220290482109e-18
-5.180152926145e-20 7.166362285116e-20 3.93036342481328e-18
8.192686953818999e-20 -1.095928269929e-19 -5.59201165165138e-18
-2.2754355644939998e-20 2.648730316769e-20 1.2715121439776399e-18
-1.0928007473324e-19 9.134100225628e-20 4.16582795462975e-18
-6.3369679565694e-19 2.7848868060787e-19 1.2191041299317269e-17
-5.0440774113572e-19 5.809011501436899e-19 -1.9360977867626e-19
3.8437733811263e-19 -2.0933311217354998e-19 2.00769796422335e-18
1.121074515108e-20 -3.545227242623e-20 -6.2537535978881e-19
1.421330687301e-20 1.306678329255e-20 4.4600901565466e-19
1.556363500501e-20 4.181590940056e-20 1.1130592234858299e-18
-2.1557685626929e-19 3.2690980150627e-19 5.9873651902794e-18
9.46312766534e-21 -2.010861909061e-20 -4.2674360819107e-19
1.173850180067e-20 -2.690747982669e-20 -6.204765712293e-19
-3.1531886447263e-19 7.5165925143994e-19 1.83574289627329e-17
7.349881700296e-20 -1.7273430197245998e-19 -4.4878414562906e-18
9.516126683137e-20 -2.1335533606404e-19 -5.94773877354741e-18
6.1649326971301e-19 -1.2775077817786299e-18 -3.858072576687178e-17
2.3865343810226e-19 -4.523968669673e-19 -1.4987311292343978e-17
1.6022779345515e-19 -2.6479296014975e-19 -9.705013525075729e-18
9.693427837653999e-20 -1.4046788592701998e-19 -5.796869365103559e-18
-1.5345614118063999e-19 1.9158990006575e-19 9.07008490259966e-18
2.4701582906596e-19 -2.5364063861104e-19 -1.404216169756635e-17
1.4066577810297e-19 -1.0953084972306e-19 -7.89202976495878e-18
-2.0613316439755998e-19 1.1929742939585e-19 1.134231113917666e-17
-4.1404114243189997e-20 1.6906328585709998e-20 2.35102144702396e-18
1.9969510405672999e-19 -4.7243133662329995e-20 -1.137945659749928e-17
2.7085578397239e-19 -2.048472082004e-20 -1.58857062393338e-17
-2.2808619961054997e-19 -1.7407642367979998e-20 1.359850951064969e-17
-1.2317836503753e-19 -2.671818007809e-20 7.47232741246682e-18
-3.2524636023846e-19 -1.3219346350584998e-19 2.0403787825884118e-17
-4.6846076233489996e-20 -2.425171892115e-20 3.0652111906881397e-18
1.1952258949536999e-19 7.225904286660999e-20 -8.17668653431996e-18
-2.2731541033225997e-19 -1.5159772358412e-19 1.627630427843338e-17
-3.94250701554e-21 -2.8129330196999998e-21 2.9873152682634e-19
1.9688969823393998e-19 1.4620782925642e-19 -1.589700537834366e-17
-1.5437555285367e-19 -1.1601521462753e-19 1.3319990360309179e-17
-2.5260011992e-22 -1.9121303587e-22 2.3837091086659998e-20
3.03035824041e-21 2.1501117764e-21 -3.2007283019595e-19
-1.3389633061492e-19 -7.539137003511e-20 1.5346367253186608e-17
4.1895592121539996e-20 1.547989029373e-20 -5.1810439655401896e-18
-3.166698250332e-20 -4.1276485788e-21 4.20860981605223e-18
1.1997969147749999e-20 -1.81742168255e-21 -1.68379673950731e-18
-6.898318102515999e-20 2.8463162349279997e-20 1.0105987210663949e-17
-3.414510690021e-20 2.6131832364939998e-20 5.2602365893410296e-18
7.677149887869e-20 -8.640120065091999e-20 -1.2235754494392999e-17
-1.413506072282e-20 2.136578592832e-20 2.3529265914039597e-18
3.3022903132709996e-20 -6.132275770803e-20 -5.5657963864676095e-18
3.400091760555e-20 -6.115932747419e-20 -4.75099539872222e-18
-3.3992021394289995e-20 5.771868747229e-20 3.94841009566969e-18
-9.026820848883e-20 1.2946570310616e-19 7.966220290482109e-18
-5.180152926145e-20 7.166362285116e-20 3.93036342481328e-18
8.192686953818999e-20 -1.095928269929e-19 -5.59201165165138e-18
-2.2754355644939998e-20 2.648730316769e-20 1.2715121439776399e-18
-1.0928007473324e-19 9.134100225628e-20 4.16582795462975e-18
-6.3369679565694e-19 2.7848868060787e-19 1.2191041299317269e-17

SCALARS Gamma float
LOOKUP_TABLE default
-0.00013439385475309072
-0.004110735377567088
0.028139599656231327
-0.003472156276452377
-0.011834833317946693
0.014732650840152465
0.05710781485741696
0.10524467528786338
0.14774743410401897
0.17836709230542208
0.19036673834784237
0.1990230820609683
0.20032267748224172
0.1733478215695684
0.1603483512746771
0.152481348352942
0.1407704737300615
0.1442949214626696
0.1398267874329931
0.1456252120397709
0.14719849438801225
0.147417450397817
0.14681405275330048
0.14814012658350426
0.15408299703653489
0.1581896841602004
0.1608102436353456
0.16032498760441036
0.16163089485032256
0.1636586745605006
0.16497298846412858
0.17367133954765462
0.1785784959254468
0.17855811221845308
0.1781376777091915
0.17689378190864982
0.17506372844984905
0.17284260721277464
0.1699077255228804
0.16445211594010045
0.16031796415662397
0.15130498163259115
0.1374076917271684
0.11915763658279525
0.10455604859511587
0.09243384338741237
0.08409728140001761
0.06991094995291686
0.0478879254745777
0.024864711361047565
-0.00013439385475309072
-0.004110735377567088
0.028139599656231327
-0.003472156276452377
-0.011834833317946693
0.014732650840152465
0.05710781485741696
0.10524467528786338
0.14774743410401897
0.17836709230542208
0.19036673834784237
0.1990230820609683
0.20032267748224172
0.1733478215695684
0.1603483512746771
0.152481348352942
0.1407704737300615
0.1442949214626696
0.1398267874329931
0.1456252120397709
0.14719849438801225
0.147417450397817
0.14681405275330048
0.14814012658350426
0.15408299703653489
0.1581896841602004
0.1608102436353456
0.16032498760441036
0.16163089485032256
0.1636586745605006
0.16497298846412858
0.17367133954765462
0.1785784959254468
0.17855811221845308
0.1781376777091915
0.17689378190864982
0.17506372844984905
0.17284260721277464
0.1699077255228804
0.16445211594010045
0.16031796415662397
0.15130498163259115
0.1374076917271684
0.11915763658279525
0.10455604859511587
0.09243384338741237
0.08409728140001761
0.06991094995291686
0.0478879254745777
0.024864711361047565

VECTORS Ftot float
0.1696972320750846 0.1431764762795738 -0.012526318558051504
0.24179430445934405 0.24141333018518396 -0.02112092961524508
-0.284628369319202 0.1656663253507306 -0.014493925396186824
0.07291049516009616 0.03992838337237162 -0.0034932808979996404
0.2316437317475453 0.06488389007941436 -0.005676604827411118
-0.20417761834494746 0.22352574395422103 -0.019555968602193365
-1.0366657905962777 0.5694737021907484 -0.049822493117830366
-2.189617864894725 0.938841308199424 -0.08213797131730056
-3.4204507247951077 1.2623161881518719 -0.11043835624854992
-4.5208945295813745 1.5110457730935665 -0.13219937521445732
-5.227538196440101 1.6203650149939144 -0.14176356958598627
-5.871339164423932 1.7253900003590972 -0.15095206519241613
-6.312257525002355 1.7540774023607402 -0.15346188765357094
-5.791266374559861 1.5881303072828956 -0.13894339808920034
-5.662018181034939 1.4967409893494892 -0.13094786880266057
-5.668647705774284 1.4451427506489458 -0.12643360785845828
-5.4838562505370225 1.389490343750271 -0.12156465315689216
-5.8830080428541685 1.4244997611021917 -0.12462758029183307
-5.942069180277323 1.4030019996043905 -0.12274676986959134
-6.443619572277436 1.4132343914039018 -0.12364198815280422
-6.756774854473984 1.4228110557133813 -0.12447983771427702
-7.007689210034368 1.3861282049980057 -0.1212705041308677
-7.208412495808638 1.3620313110745363 -0.11916229908637735
-7.497361405725117 1.3571846169043469 -0.11873826829090858
-8.027622472427572 1.361791956343525 -0.11914135826085255
-8.4656451531372 1.3561940299052477 -0.11865160315825124
-8.825303210491889 1.3392429027895685 -0.11716857170164235
-9.00917243630224 1.2997822703979425 -0.11371621371181109
-9.28772694991945 1.2648965929083384 -0.11066411241204914
-9.604227637149272 1.230289075198878 -0.10763634693969856
-9.874673198822144 1.1896766917853785 -0.10408322379224896
-10.591749042682588 1.1751617930877747 -0.10281333470398141
-11.081412284192123 1.1136805455009762 -0.09743442252070576
-11.26096635967786 1.0633117000321135 -0.09302771954729103
-11.405961684652219 1.0194064498279969 -0.08918650788516143
-11.488182777674597 0.9770710442827805 -0.08548263983418232
-11.52096085138101 0.9500495779333318 -0.08311856785675825
-11.516897143226279 0.9284512946839859 -0.08122896292081856
-11.453351992403272 0.9009321227835355 -0.07882134734990791
-11.205845370484994 0.8741992732339534 -0.07648252607057528
-11.034412148615882 0.8454293189371762 -0.07396548121944825
-10.510841032600315 0.8155100816679133 -0.07134788713704535
-9.625149715338242 0.9231732815864718 -0.08076719660884472
-8.410681771474488 0.9936523541009784 -0.0869333164696858
-7.430828628461535 1.181993762809357 -0.10341105460417223
-6.609207533339735 1.2577839556437576 -0.11004183728362622
-6.047081249881397 1.3049525192251734 -0.11416855187180203
-5.051838218736521 1.3562682621254836 -0.11865809763599021
-3.4756396348329623 1.3906552794808569 -0.12166657182705469
-1.8127228821882464 1.4575972347116932 -0.127523234024013
0.1696972320750846 0.1431764762795738 -0.012526318558051504
0.24179430445934405 0.24141333018518396 -0.02112092961524508
-0.284628369319202 0.1656663253507306 -0.014493925396186824
0.07291049516009616 0.03992838337237162 -0.0034932808979996404
0.2316437317475453 0.06488389007941436 -0.005676604827411118
-0.20417761834494746 0.22352574395422103 -0.019555968602193365
-1.0366657905962777 0.5694737021907484 -0.049822493117830366
-2.189617864894725 0.938841308199424 -0.08213797131730056
-3.4204507247951077 1.2623161881518719 -0.11043835624854992
-4.5208945295813745 1.5110457730935665 -0.13219937521445732
-5.227538196440101 1.6203650149939144 -0.14176356958598627
-5.871339164423932 1.7253900003590972 -0.15095206519241613
-6.312257525002355 1.7540774023607402 -0.15346188765357094
-5.791266374559861 1.5881303072828956 -0.13894339808920034
-5.662018181034939 1.4967409893494892 -0.13094786880266057
-5.668647705774284 1.4451427506489458 -0.12643360785845828
-5.4838562505370225 1.389490343750271 -0.12156465315689216
-5.8830080428541685 1.4244997611021917 -0.12462758029183307
-5.942069180277323 1.4030019996043905 -0.12274676986959134
-6.443619572277436 1.4132343914039018 -0.12364198815280422
-6.756774854473984 1.4228110557133813 -0.12447983771427702
-7.007689210034368 1.3861282049980057 -0.1212705041308677
-7.208412495808638 1.3620313110745363 -0.11916229908637735
-7.497361405725117 1.3571846169043469 -0.11873826829090858
-8.027622472427572 1.361791956343525 -0.11914135826085255
-8.4656451531372 1.3561940299052477 -0.11865160315825124
-8.825303210491889 1.3392429027895685 -0.11716857170164235
-9.00917243630224 1.2997822703979425 -0.11371621371181109
-9.28772694991945 1.2648965929083384 -0.11066411241204914
-9.604227637149272 1.230289075198878 -0.10763634693969856
-9.874673198822144 1.1896766917853785 -0.10408322379224896
-10.591749042682588 1.1751617930877747 -0.10281333470398141
-11.081412284192123 1.1136805455009762 -0.09743442252070576
-11.26096635967786 1.0633117000321135 -0.09302771954729103
-11.405961684652219 1.0194064498279969 -0.08918650788516143
-11.488182777674597 0.9770710442827805 -0.08548263983418232
-11.52096085138101 0.9500495779333318 -0.08311856785675825
-11.516897143226279 0.9284512946839859 -0.08122896292081856
-11.453351992403272 0.9009321227835355 -0.07882134734990791
-11.205845370484994 0.8741992732339534 -0.07648252607057528
-11.034412148615882 0.8454293189371762 -0.07396548121944825
-10.510841032600315 0.8155100816679133 -0.07134788713704535
-9.625149715338242 0.9231732815864718 -0.08076719660884472
-8.410681771474488 0.9936523541009784 -0.0869333164696858
-7.430828628461535 1.181993762809357 -0.10341105460417223
-6.609207533339735 1.2577839556437576 -0.11004183728362622
-6.047081249881397 1.3049525192251734 -0.11416855187180203
-5.051838218736521 1.3562682621254836 -0.11865809763599021
-3.4756396348329623 1.3906552794808569 -0.12166657182705469
-1.8127228821882464 1.4575972347116932 -0.127523234024013

VECTORS D float
0.16889469383415426 0.14438486277196755 -0.0068098737994270325
0.21032708499830763 0.26663952261028245 -0.012466259573979578
-0.0018473604680726596 -0.003083411464226022 0.00014168075929964986
0.02963077809614065 0.06098933368646414 -0.0027310787577164556
0.056267950920311796 0.1369359890728052 -0.005931253812957949
0.04793172831853835 0.13378282094693517 -0.005578738405413364
0.06950044534622093 0.21725597112563141 -0.008696148952641428
0.08145818094013119 0.2793817681449899 -0.010574552837122293
0.08674185552544345 0.32245670997967235 -0.011713308344817461
0.09000778209563551 0.35894130463038426 -0.01234134733563078
0.0878243381712891 0.37299639212923913 -0.011974852633267224
0.0899789825041784 0.4049689226900802 -0.011971768384467186
0.08658907188403475 0.4115287998591588 -0.011043312358530712
0.08340782089697707 0.41745308303173334 -0.01001280278788971
0.07754942407922967 0.4077701016805212 -0.008584186313604213
0.07357264743249253 0.40553649252084495 -0.007321488411273312
0.07410995913246934 0.4273336749535798 -0.006415169911744541
0.07284632752739842 0.4401943680693371 -0.004810914171020229
0.0719264980716483 0.45664414882859367 -0.003495763426504191
0.06565146846996155 0.4379034438987221 -0.001992792799287831
0.06420020790175184 0.4500980047758586 -0.0007420014243232331
0.05802824784744024 0.42797280486369077 0.00043752433995352584
0.05491250575152203 0.4265397694659359 0.001467060525634512
0.053078402516227 0.43481405809812607 0.0024297049825752898
0.05023128127665262 0.4412943055716241 0.003659799088360235
0.04791046672697429 0.4513857570903743 0.00430355269572091
0.045655582667159696 0.4627298241086744 0.004756607398116596
0.04306028472725799 0.471076848291465 0.004988997670285962
0.04021700343770156 0.47666556420540496 0.005019169349262886
0.03733437813484223 0.4813878636207804 0.004889815859343791
0.034450858575789715 0.48551448644274386 0.004628039211803021
0.031528388494923155 0.48827644752957144 0.004250891865117839
0.027462680965584532 0.4887682421654165 0.003543343914212338
0.024909318089176662 0.49587040336674315 0.002653371621318828
0.022718483089036696 0.5095249027212566 0.0017060642519067697
0.020614329922651706 0.5254550826509844 0.000670455963711162
0.018989323950417622 0.5559637371161522 -0.0004647753551798967
0.017303365212936964 0.5909070190147858 -0.001546156839010273
0.015321917346137678 0.6160626279343815 -0.002961022104090882
0.013340355011523784 0.6413259190254448 -0.00444493802057465
0.011227671365998287 0.6573901365667859 -0.005901991657315847
0.009211043294763938 0.6720160351595144 -0.007349478541647862
0.008770592193895727 0.8211771531929627 -0.010508205134726185
0.007412804156984939 0.9274368281478608 -0.013493649075381723
0.006426055468657195 1.141500777855068 -0.018478667036400245
0.0036811935130739858 1.2397398573039569 -0.022556071419301525
0.0018082680428799913 1.298264968447186 -0.02541703973309282
7.10764088133263e-5 1.3578863294112382 -0.02828532133714904
-0.0015041939169079012 1.3963956760986498 -0.030657185178015273
-0.002953146749330602 1.4634051393872018 -0.03358311698261609
0.16889469383415426 0.14438486277196755 -0.0068098737994270325
0.21032708499830763 0.26663952261028245 -0.012466259573979578
-0.0018473604680726596 -0.003083411464226022 0.00014168075929964986
0.02963077809614065 0.06098933368646414 -0.0027310787577164556
0.056267950920311796 0.1369359890728052 -0.005931253812957949
0.04793172831853835 0.13378282094693517 -0.005578738405413364
0.06950044534622093 0.21725597112563141 -0.008696148952641428
0.08145818094013119 0.2793817681449899 -0.010574552837122293
0.08674185552544345 0.32245670997967235 -0.011713308344817461
0.09000778209563551 0.35894130463038426 -0.01234134733563078
0.0878243381712891 0.37299639212923913 -0.011974852633267224
0.0899789825041784 0.4049689226900802 -0.011971768384467186
0.08658907188403475 0.4115287998591588 -0.011043312358530712
0.08340782089697707 0.41745308303173334 -0.01001280278788971
0.07754942407922967 0.4077701016805212 -0.008584186313604213
0.07357264743249253 0.40553649252084495 -0.007321488411273312
0.07410995913246934 0.4273336749535798 -0.006415169911744541
0.07284632752739842 0.4401943680693371 -0.004810914171020229
0.0719264980716483 0.45664414882859367 -0.003495763426504191
0.06565146846996155 0.4379034438987221 -0.001992792799287831
0.06420020790175184 0.4500980047758586 -0.0007420014243232331
0.05802824784744024 0.42797280486369077 0.00043752433995352584