# vtk DataFile Version 4.0
[MyVLM domain - lattices] 
ASCII
DATASET UNSTRUCTURED_GRID
POINTS 152 float
0.0018916144324157278 -0.009389359941068185 0.0037828484684815557
0.0010688609733395774 -0.013476872289929137 0.0025891729878191284
0.00045780959861706216 -0.017498254107773784 0.0014329174775235068
-0.00013255382275044122 -0.02138498313453627 0.00019539790171118794
-0.0007201482309470062 -0.025165829084892507 -0.001073555132079889
-0.0011946371146526612 -0.028766000648839222 -0.0025034839727400347
-0.0014108622120167862 -0.032033586886785564 -0.004357506085866114
-0.0013224843579428829 -0.03509523022161987 -0.006416270360621925
-0.0010167791708201568 -0.038135782479123276 -0.008359604042882652
-0.0006138083932142036 -0.041031604107571715 -0.010401657118059451
-0.00020084691410191335 -0.04383978561135771 -0.0124435459319147
0.0001698744379422134 -0.04663205018164117 -0.014361042273278477
0.0004739400232210948 -0.049371565232594505 -0.0162179420521783
0.0007082255455298663 -0.05201742821619074 -0.018085090559955934
0.0008836440760600275 -0.05457551730850693 -0.019952306496990067
0.001017516815515788 -0.05707545295056284 -0.021768285754491887
0.0011275777072549662 -0.0595443646161735 -0.023486038705431152
0.0012277625198140337 -0.06198903175741234 -0.025093822994369176
0.00132638558954348 -0.06439254173004828 -0.026620932180404552
0.0014271324949937316 -0.06672998234487479 -0.028110515440970766
0.0015306083418583354 -0.06898490836874199 -0.029591056755425695
0.0016355657532635378 -0.07115694652042864 -0.03106320266581009
0.0017398364473795213 -0.07325616618856755 -0.03250951247941071
0.0018410131526058282 -0.07529421483574443 -0.03390981219924986
0.001936923789896676 -0.07727965282889503 -0.035249274834863425
0.0020259353317291845 -0.07921726156952591 -0.036519618755910616
0.0021071205190511294 -0.08110830556611796 -0.03771865376945592
0.002180316672546981 -0.08295095921139886 -0.03884954192004972
0.0022461021518325993 -0.0847408373374063 -0.039919878541402415
0.0023056987632523672 -0.08647165398608407 -0.04094055123224161
0.0023607022647827588 -0.08813654313298867 -0.04192345229574946
0.0024126938092907785 -0.08972983204851104 -0.042878407187826484
0.0024629658139780817 -0.09124816943435568 -0.04381122052739178
0.0025123806343549317 -0.09269095322529211 -0.04472293512201401
0.0025613283706516186 -0.09406025080806986 -0.04560997015280411
0.0026097549007438213 -0.09536037565893099 -0.046464854459753555
0.0026572361369983943 -0.09659725064601225 -0.04727732933432301
0.002703078927872171 -0.09777724161256136 -0.04803636881257436
0.0027464329900004744 -0.09890435047645318 -0.04873504136942069
0.0027864017842759935 -0.0999778887376759 -0.04937453952186341
0.0028221433614242725 -0.10099224831527183 -0.0499645767510542
0.0028529549202113143 -0.10193809300249296 -0.05052132384143062
0.002878337166053322 -0.10280395192241353 -0.051064648934635436
0.0028980365508205295 -0.10357571076753191 -0.051618998728375096
0.0029120651374179955 -0.10423596200594934 -0.052214523952332656
0.002920699186668212 -0.10476697217443681 -0.05288193986581495
0.0029244586304951574 -0.10515540672197445 -0.053644342588684404
0.002924070395798875 -0.1053966847625839 -0.05450966644819933
0.0029204190990956736 -0.10549772543367165 -0.05546592714682712
0.0029144889643634465 -0.10547755331101995 -0.05648017315272036
0.002907300946956263 -0.1053657589441796 -0.0575011521306333
0.006212993241944028 -0.002091700290282895 -0.008857068823023737
0.0072288922610571306 -0.004148056446937373 -0.013568810026695861
0.007974780507892725 -0.006893215141663495 -0.016935548828026968
0.008270023946844132 -0.010045738062255588 -0.019444750682953697
0.008140225139500825 -0.013474912489859882 -0.021322816661726245
0.007751519283975376 -0.01698848411447696 -0.0229027409972377
0.007318662739924205 -0.020351955663723713 -0.024590684879491922
0.0069707766105224795 -0.023636939462181143 -0.02626261212386649
0.006702226685381192 -0.026991268777722476 -0.027662467999356052
0.006460614097576536 -0.030264333747385474 -0.029051116440732196
0.006208498480286784 -0.03349205991859097 -0.030366332574572285
0.005928720355726676 -0.03672938557533412 -0.03151296050171609
0.00562110152420414 -0.0399263175000536 -0.03257759101501365
0.005297776270156929 -0.04303160612426233 -0.033648990970950574
0.004977662142563614 -0.04604298870597799 -0.03473107955360465
0.004680078492205027 -0.04898363977748583 -0.03578371729561621
0.0044193472589770496 -0.0518754733050417 -0.03676894809403474
0.0042022226504668725 -0.054721027930122616 -0.037682374892839855
0.004028605706719037 -0.05750007803218886 -0.03855902949442096
0.003894567528214928 -0.06018539467507187 -0.03944607379965806
0.003794542923454683 -0.0627591742345131 -0.040374344590325836
0.0037223892098821663 -0.06522052341773481 -0.041345389094901326
0.0036720478837599236 -0.06757970622347892 -0.04234142954607474
0.0036379885391020494 -0.06984916317319018 -0.04334091832863109
0.003615480687410345 -0.07203873673184406 -0.04432680779316115
0.003600729157216099 -0.07415487652292999 -0.04528792686409156
0.0035909263662617956 -0.07620080694274238 -0.046218690723216625
0.003584242976167935 -0.07817686771874267 -0.047118510945312456
0.00357976601221264 -0.08008096581586378 -0.04799101277345722
0.003577378730160166 -0.08190916279870396 -0.04884301777786911
0.0035774796054096774 -0.08365693172402072 -0.049682366854247054
0.003580588564800478 -0.08532087445417758 -0.050514945749628594
0.0035870678637920984 -0.08689980151068094 -0.051342814701199106
0.0035969747054953923 -0.08839511952563638 -0.05216353735068422
0.0036100119296844893 -0.0898107191199145 -0.052970374945063015
0.0036255480079795204 -0.09115252712800188 -0.05375306190587672
0.0036426825552804717 -0.09242785319027098 -0.054498937564615185
0.0036603380175139954 -0.09364421397528296 -0.05519498266942684
0.003677362157174432 -0.0948065238035471 -0.05583268536750487
0.0036926294639041822 -0.09591477200677319 -0.056412064136869965
0.0037051326977571345 -0.09696380330986941 -0.05694204817590818
0.003714058455611533 -0.0979445238301067 -0.0574383885515443
0.003718842962038476 -0.09884551333704789 -0.057920865683129694
0.003719206248598144 -0.09965253878881102 -0.05841413192235012
0.003715164522496519 -0.10034792954406194 -0.05894879371779867
0.0037070218583473346 -0.10091357158477579 -0.05955622546902361
0.003695343396461056 -0.10133566043820078 -0.06026033722420274
0.003680913018392471 -0.1016090844030624 -0.0610699827096566
0.0036646790161518838 -0.1017401990541234 -0.0619741537469849
0.003647691596346039 -0.10174745979519222 -0.06294088463911712
0.0036310361855396924 -0.10165990789282144 -0.06391987443686808
0.005410766489344848 -0.005198187805332266 -0.007613201886607263
0.005892211109850776 -0.00801236764543819 -0.010936373262353232
0.006132458642509649 -0.011212512106758412 -0.013439072894213413
0.006047255650667177 -0.014639095484471898 -0.015397607408051068
0.005720055990603616 -0.018165252443342782 -0.01703171401021397
0.005325630843128663 -0.02160261335877835 -0.018667658461099378
0.005016871435172548 -0.024886937810765005 -0.02041670843207041
0.004834968294868498 -0.028139454677556748 -0.022068889346646522
0.004732241848104854 -0.031366774270252355 -0.023612751810150857
0.00464908530328423 -0.034517571339607346 -0.025137193761985952
0.004547585503985086 -0.037642021534346766 -0.026555308429257282
0.004411660012619469 -0.040746340580049854 -0.027856329859455756
0.004242349868979272 -0.04378284554021662 -0.029122847321253358
0.00405227310746894 -0.04672709125192733 -0.03039720107882646
0.003859297849485217 -0.04959135696368265 -0.03165812284989306
0.0036804214720396232 -0.05239964460178987 -0.03286404007860949
0.003527506244425096 -0.055165362509884845 -0.03399172883255301
0.003405829147614405 -0.057880611421799386 -0.03505487104206952
0.003315379723667389 -0.06052236777458816 -0.03609334468795155
0.003253134023982613 -0.06306857468029647 -0.037145353420793524
0.003214621311891553 -0.0655101184807393 -0.03822668255961466
0.0031948391851961662 -0.06785172520407967 -0.03932914638351863
0.0031888698585714084 -0.07010462365178992 -0.04043329603784726
0.0031922930777549615 -0.07227969592246777 -0.04152028317493625
0.003201436081938149 -0.07438471927034289 -0.04257663719531653
0.0032135028026517493 -0.07642407719158263 -0.043594765660911396
0.003226618152360912 -0.07839903609524651 -0.044572475086886616
0.0032398057236901635 -0.08030816214407807 -0.04551224895222015
0.003252904392775423 -0.0821478596458992 -0.04642031517845288
0.003266372004343082 -0.08391331008590586 -0.04730501967804245
0.0032809500730880004 -0.08559997421451183 -0.04817422466190037
0.0032973286136308236 -0.08720500367218029 -0.049032863633462674
0.0033159342695244357 -0.08872798572107497 -0.04988165147563198
0.0033368336138182735 -0.09017108999625183 -0.05071683027025749
0.0033597203855484335 -0.09153879565134376 -0.051530641895672115
0.0033839603409402744 -0.09283734590747024 -0.052312272775694044
0.003408672097906746 -0.09407383671940443 -0.05304943235612793
0.0034328265552422406 -0.09525422567818809 -0.053731801786598775
0.0034553512046890385 -0.09638076583063625 -0.054355478675551086
0.003475228953835527 -0.09745073287535945 -0.05492518165140651
0.0034915839677176984 -0.09845691534221165 -0.05545340134685529
0.0035037495424018335 -0.09938901955329629 -0.05595796693501101
0.0035113151685979642 -0.10023422738344027 -0.056461080059931244
0.003514151750190315 -0.10097663472151253 -0.056990287450144256
0.003512415433327221 -0.10159842969586244 -0.057576440172326805
0.0035065316976985676 -0.10208375937066762 -0.0582469963167723
0.0034971622838568268 -0.1024232907510435 -0.05901812110480773
0.003485158199815951 -0.10261778257097663 -0.05988850037061887
0.0034715024876191118 -0.10267978191157982 -0.0608364019322317
0.003457246657122113 -0.10263317691490506 -0.061820450313913665

CELLS 100 350
4 0 51 52 1
4 1 52 53 2
4 2 53 54 3
4 3 54 55 4
4 4 55 56 5
4 5 56 57 6
4 6 57 58 7
4 7 58 59 8
4 8 59 60 9
4 9 60 61 10
4 10 61 62 11
4 11 62 63 12
4 12 63 64 13
4 13 64 65 14
4 14 65 66 15
4 15 66 67 16
4 16 67 68 17
4 17 68 69 18
4 18 69 70 19
4 19 70 71 20
4 20 71 72 21
4 21 72 73 22
4 22 73 74 23
4 23 74 75 24
4 24 75 76 25
4 25 76 77 26
4 26 77 78 27
4 27 78 79 28
4 28 79 80 29
4 29 80 81 30
4 30 81 82 31
4 31 82 83 32
4 32 83 84 33
4 33 84 85 34
4 34 85 86 35
4 35 86 87 36
4 36 87 88 37
4 37 88 89 38
4 38 89 90 39
4 39 90 91 40
4 40 91 92 41
4 41 92 93 42
4 42 93 94 43
4 43 94 95 44
4 44 95 96 45
4 45 96 97 46
4 46 97 98 47
4 47 98 99 48
4 48 99 100 49
4 49 100 101 50
1 102
1 103
1 104
1 105
1 106
1 107
1 108
1 109
1 110
1 111
1 112
1 113
1 114
1 115
1 116
1 117
1 118
1 119
1 120
1 121
1 122
1 123
1 124
1 125
1 126
1 127
1 128
1 129
1 130
1 131
1 132
1 133
1 134
1 135
1 136
1 137
1 138
1 139
1 140
1 141
1 142
1 143
1 144
1 145
1 146
1 147
1 148
1 149
1 150
1 151

CELL_TYPES 100
9
9
9
9
9
9
9
9
9
9
9
9
9
9
9
9
9
9
9
9
9
9
9
9
9
9
9
9
9
9
9
9
9
9
9
9
9
9
9
9
9
9
9
9
9
9
9
9
9
9
1
1
1
1
1
1
1
1
1
1
1
1
1
1
1
1
1
1
1
1
1
1
1
1
1
1
1
1
1
1
1
1
1
1
1
1
1
1
1
1
1
1
1
1
1
1
1
1
1
1

CELL_DATA 100

VECTORS S float
-3.73479297432e-21 -5.832230286227e-20 -3.985532862522e-20
1.14668591406795e-18 -4.67298449970488e-18 -2.49352668856724e-18
4.88139200209555e-18 1.269345979819284e-17 1.0231874131716499e-17
5.314239488694e-20 1.95665582244377e-18 1.3229214037417598e-18
7.80787080518e-21 9.3239192022918e-19 6.3481080729237e-19
8.586014103864e-20 2.824134347723992e-17 1.951368376364279e-17
-9.420186824119999e-21 -6.188505714478192e-17 -4.329761409926132e-17
9.060265877513999e-20 -3.493901380981318e-17 -2.483217756992829e-17
1.7738828240382e-19 -3.6648062830362787e-17 -2.64393966713268e-17
-1.5085563516736999e-19 2.236871787855061e-17 1.636148822511444e-17
8.9590428842999e-19 -1.0700981805702983e-16 -7.926066941051498e-17
3.8530430488089e-19 -3.958001987328532e-17 -2.964671989370952e-17
-4.7516149382006e-19 4.380529419041252e-17 3.3132291213436e-17
-4.4676495226436e-19 3.7696131186481957e-17 2.87637669035952e-17
-6.501042102238699e-19 5.2246657302641826e-17 4.0188963149177e-17
8.2409899855108e-19 -6.536195478097095e-17 -5.0539952136528166e-17
2.12625362396791e-18 -1.6474473210410323e-16 -1.281935018617806e-16
-2.2412088076837997e-19 1.7278168126357618e-17 1.3520346525826639e-17
8.6208523337689e-19 -6.573373828681927e-17 -5.1692641995405504e-17
6.548152714094399e-19 -4.8717715758665335e-17 -3.847914641474033e-17
3.34279441273e-19 -2.498198334058718e-17 -1.981044399899319e-17
-2.1806813091559e-18 1.7088105409826763e-16 1.357894612434347e-16
1.6697760782756799e-18 -1.3262257039263553e-16 -1.0570609985417636e-16
-1.1937978215898e-19 9.653549995928549e-18 7.711319414683259e-18
9.468580618826999e-20 -7.9024849610416e-18 -6.3213062250848e-18
1.1347011911436799e-18 -9.86647139603549e-17 -7.896454143597641e-17
-4.852533858100499e-19 4.468538167578716e-17 3.575101675505728e-17
-1.2967444152736e-18 1.2844934321515585e-16 1.0264502831022476e-16
1.531542398599e-20 -1.66059981335998e-18 -1.3243536170653699e-18
5.9467271431997e-19 -7.187655538004289e-17 -5.716351680740931e-17
7.861093960514999e-20 -1.052674466096067e-17 -8.347120298544419e-18
4.83918961581e-19 -7.324944563106819e-17 -5.788588116443414e-17
2.8776372549847997e-19 -4.8585445431497755e-17 -3.829132820438734e-17
-5.1251462371367e-19 9.614440387303328e-17 7.546610811983235e-17
-1.0123665041796999e-19 2.095925539939524e-17 1.638016213159034e-17
-3.6178867464539996e-20 8.213343257554149e-18 6.39139251598893e-18
-1.1888243532882999e-19 2.896689604275565e-17 2.244669734994875e-17
-4.6277474166269996e-20 1.202424871532594e-17 9.27998530941611e-18
-2.354241088621e-19 6.58829278795757e-17 5.0650371021765914e-17
2.3488243495065997e-19 -6.93347500879586e-17 -5.312951833067633e-17
2.7186569553875e-19 -8.646174656064619e-17 -6.602555874930837e-17
1.5811800478178999e-19 -5.2427605984388045e-17 -3.99102753004506e-17
-1.917201085769e-20 5.61991997363307e-18 4.2660294422302296e-18
-1.8871785986569998e-20 4.1026934487785494e-18 3.10644350214355e-18
4.900055690935199e-19 -7.146188570608908e-17 -5.398830404242386e-17
7.524865815432e-20 -8.3391022426116e-18 -6.2877873150956196e-18
1.3842880691609998e-20 -1.21902522807589e-18 -9.1761325405405e-19
1.0827477944970999e-19 -7.20243112645691e-18 -5.41386068818025e-18
-1.84998510137182e-18 8.897605149322161e-17 6.680241394231747e-17
-3.6101597068899e-18 8.74148950624627e-17 6.560633158929551e-17
-3.73479297432e-21 -5.832230286227e-20 -3.985532862522e-20
1.14668591406795e-18 -4.67298449970488e-18 -2.49352668856724e-18
4.88139200209555e-18 1.269345979819284e-17 1.0231874131716499e-17
5.314239488694e-20 1.95665582244377e-18 1.3229214037417598e-18
7.80787080518e-21 9.3239192022918e-19 6.3481080729237e-19
8.586014103864e-20 2.824134347723992e-17 1.951368376364279e-17
-9.420186824119999e-21 -6.188505714478192e-17 -4.329761409926132e-17
9.060265877513999e-20 -3.493901380981318e-17 -2.483217756992829e-17
1.7738828240382e-19 -3.6648062830362787e-17 -2.64393966713268e-17
-1.5085563516736999e-19 2.236871787855061e-17 1.636148822511444e-17
8.9590428842999e-19 -1.0700981805702983e-16 -7.926066941051498e-17
3.8530430488089e-19 -3.958001987328532e-17 -2.964671989370952e-17
-4.7516149382006e-19 4.380529419041252e-17 3.3132291213436e-17
-4.4676495226436e-19 3.7696131186481957e-17 2.87637669035952e-17
-6.501042102238699e-19 5.2246657302641826e-17 4.0188963149177e-17
8.2409899855108e-19 -6.536195478097095e-17 -5.0539952136528166e-17
2.12625362396791e-18 -1.6474473210410323e-16 -1.281935018617806e-16
-2.2412088076837997e-19 1.7278168126357618e-17 1.3520346525826639e-17
8.6208523337689e-19 -6.573373828681927e-17 -5.1692641995405504e-17
6.548152714094399e-19 -4.8717715758665335e-17 -3.847914641474033e-17
3.34279441273e-19 -2.498198334058718e-17 -1.981044399899319e-17
-2.1806813091559e-18 1.7088105409826763e-16 1.357894612434347e-16
1.6697760782756799e-18 -1.3262257039263553e-16 -1.0570609985417636e-16
-1.1937978215898e-19 9.653549995928549e-18 7.711319414683259e-18
9.468580618826999e-20 -7.9024849610416e-18 -6.3213062250848e-18
1.1347011911436799e-18 -9.86647139603549e-17 -7.896454143597641e-17
-4.852533858100499e-19 4.468538167578716e-17 3.575101675505728e-17
-1.2967444152736e-18 1.2844934321515585e-16 1.0264502831022476e-16
1.531542398599e-20 -1.66059981335998e-18 -1.3243536170653699e-18
5.9467271431997e-19 -7.187655538004289e-17 -5.716351680740931e-17
7.861093960514999e-20 -1.052674466096067e-17 -8.347120298544419e-18
4.83918961581e-19 -7.324944563106819e-17 -5.788588116443414e-17
2.8776372549847997e-19 -4.8585445431497755e-17 -3.829132820438734e-17
-5.1251462371367e-19 9.614440387303328e-17 7.546610811983235e-17
-1.0123665041796999e-19 2.095925539939524e-17 1.638016213159034e-17
-3.6178867464539996e-20 8.213343257554149e-18 6.39139251598893e-18
-1.1888243532882999e-19 2.896689604275565e-17 2.244669734994875e-17
-4.6277474166269996e-20 1.202424871532594e-17 9.27998530941611e-18
-2.354241088621e-19 6.58829278795757e-17 5.0650371021765914e-17
2.3488243495065997e-19 -6.93347500879586e-17 -5.312951833067633e-17
2.7186569553875e-19 -8.646174656064619e-17 -6.602555874930837e-17
1.5811800478178999e-19 -5.2427605984388045e-17 -3.99102753004506e-17
-1.917201085769e-20 5.61991997363307e-18 4.2660294422302296e-18
-1.8871785986569998e-20 4.1026934487785494e-18 3.10644350214355e-18
4.900055690935199e-19 -7.146188570608908e-17 -5.398830404242386e-17
7.524865815432e-20 -8.3391022426116e-18 -6.2877873150956196e-18
1.3842880691609998e-20 -1.21902522807589e-18 -9.1761325405405e-19
1.0827477944970999e-19 -7.20243112645691e-18 -5.41386068818025e-18
-1.84998510137182e-18 8.897605149322161e-17 6.680241394231747e-17
-3.6101597068899e-18 8.74148950624627e-17 6.560633158929551e-17

SCALARS Gamma float
LOOKUP_TABLE default
0.00010858737834931449
-0.0010541454019460511
0.0008265660957444986
0.01438411005011906
0.05202271570362773
0.09056961392005627
0.13794277409445088
0.17943219886152173
0.2225738259983481
0.2530013347222436
0.26972327053507533
0.27410764548616817
0.2693832615707222
0.24350868043982718
0.23006567587513904
0.21999105651712952
0.20878432684319007
0.20509418582262604
0.19971482822217265
0.19359308201410994
0.1924519632699417
0.1917829706098258
0.18575050800258103
0.1833259855373252
0.18187385652330829
0.1820451439707719
0.18353322702782413
0.18510978679808796
0.18840606427720666
0.19305818241527217
0.194205202583697
0.20215511138171688
0.2013128148920817
0.20120164123291287
0.2007609824192513
0.19974135618390834
0.1982730753342002
0.19654966953306233
0.19497368048683858
0.19156569245939176
0.19099990758592775
0.18916934914644462
0.18349344542698678
0.14271740633540733
0.11195751606911812
0.08831755879915519
0.071043859358886
0.0545840124670512
0.03974806162270268
0.020735273498642296
0.00010858737834931449
-0.0010541454019460511
0.0008265660957444986
0.01438411005011906
0.05202271570362773
0.09056961392005627
0.13794277409445088
0.17943219886152173
0.2225738259983481
0.2530013347222436
0.26972327053507533
0.27410764548616817
0.2693832615707222
0.24350868043982718
0.23006567587513904
0.21999105651712952
0.20878432684319007
0.20509418582262604
0.19971482822217265
0.19359308201410994
0.1924519632699417
0.1917829706098258
0.18575050800258103
0.1833259855373252
0.18187385652330829
0.1820451439707719
0.18353322702782413
0.18510978679808796
0.18840606427720666
0.19305818241527217
0.194205202583697
0.20215511138171688
0.2013128148920817
0.20120164123291287
0.2007609824192513
0.19974135618390834
0.1982730753342002
0.19654966953306233
0.19497368048683858
0.19156569245939176
0.19099990758592775
0.18916934914644462
0.18349344542698678
0.14271740633540733
0.11195751606911812
0.08831755879915519
0.071043859358886
0.0545840124670512
0.03974806162270268
0.020735273498642296

VECTORS Ftot float
-0.00019044005642643012 0.0005069542818054155 -0.0007240057470697749
0.029486500596417255 0.03041010133819979 -0.04343012561097517
0.020092259573730925 0.05110446278217546 -0.07298473665798952
-0.1330722799340239 0.1050343496840146 -0.15000459714067774
-0.6953366261882885 0.21052702558033268 -0.3006637519478943
-1.4437417291695194 0.33240792067070185 -0.4747277093311476
-2.527519831107789 0.47949432644712775 -0.6847888665596092
-3.6905634638555065 0.636891046178977 -0.9095746781123941
-5.064980472268989 0.8084775050513531 -1.1546255373349126
-6.293847365342644 0.9514519063945498 -1.3588141436283434
-7.267394271488883 1.0524948106209975 -1.5031183658947773
-7.939442855879752 1.1084166783886469 -1.5829830698804408
-8.334511612778261 1.1274632846555601 -1.6101844426557343
-8.003530967635921 1.057027548888944 -1.5095917870172286
-8.001627771070343 1.0102466994491204 -1.4427818101360423
-8.059652306990996 0.9743821971608698 -1.3915619926802802
-8.031709907107796 0.9314349720202373 -1.330226998700582
-8.258771054766102 0.9114058537454521 -1.3016224533596457
-8.389619258068084 0.8939021259021086 -1.2766245393296187
-8.456584388955187 0.8879606431145848 -1.2681392225295238
-8.72493870316066 0.8810683133453423 -1.2582959555077708
-9.006671820879301 0.8522235899741438 -1.2171014213201665
-9.011764579885984 0.8204194273447838 -1.1716803698549447
-9.169586141519538 0.8052810555408052 -1.150060534337772
-9.36237220880089 0.7877923460958645 -1.1250840688034882
-9.628177950977435 0.7743721908566215 -1.1059181008483938
-9.957875822708559 0.7582891916607959 -1.0829491976044407
-10.2879518226754 0.7353183763016654 -1.050143473436058
-10.711134102467852 0.7108519749155694 -1.0152018310643527
-11.211076079966952 0.6829876985624481 -0.9754075203313317
-11.50519461158117 0.6487218980855383 -0.9264708856808106
-12.20323783006664 0.6268872365818399 -0.8952877573764153
-12.365264345290301 0.5833008767280052 -0.8330399844300177
-12.56203891291359 0.5534753231919597 -0.7904446795975345
-12.72820830118113 0.5293918382996136 -0.756049898653127
-12.846752317908742 0.5082288079436877 -0.7258259590336891
-12.924675446269076 0.4972047707926174 -0.7100820023501371
-12.974319493302291 0.4885648406371646 -0.6977429033202364
-13.02237509480656 0.4750719395522303 -0.6784730435306192
-12.935911343053585 0.4644432711771124 -0.6632937319763719
-13.029227825416836 0.4522425061868264 -0.6458692337747661
-13.025793103100995 0.45066388184739986 -0.6436147245710196
-12.74424108652792 0.5169952771656632 -0.7383457745792193
-9.991215361055936 0.5649201766882297 -0.8067896243056878
-7.8958349810275505 0.6858228432037144 -0.9794565264995817
-6.271001290461383 0.7364119379765868 -1.0517052413623464
-5.0758376317473015 0.7682313454563685 -1.0971480647303111
-3.9225785729534195 0.8023155188858424 -1.145825309075066
-2.872630615368306 0.8267868819357249 -1.1807740374370181
-1.5110428938502536 0.8685566645669763 -1.2404274692438904
-0.00019044005642643012 0.0005069542818054155 -0.0007240057470697749
0.029486500596417255 0.03041010133819979 -0.04343012561097517
0.020092259573730925 0.05110446278217546 -0.07298473665798952
-0.1330722799340239 0.1050343496840146 -0.15000459714067774
-0.6953366261882885 0.21052702558033268 -0.3006637519478943
-1.4437417291695194 0.33240792067070185 -0.4747277093311476
-2.527519831107789 0.47949432644712775 -0.6847888665596092
-3.6905634638555065 0.636891046178977 -0.9095746781123941
-5.064980472268989 0.8084775050513531 -1.1546255373349126
-6.293847365342644 0.9514519063945498 -1.3588141436283434
-7.267394271488883 1.0524948106209975 -1.5031183658947773
-7.939442855879752 1.1084166783886469 -1.5829830698804408
-8.334511612778261 1.1274632846555601 -1.6101844426557343
-8.003530967635921 1.057027548888944 -1.5095917870172286
-8.001627771070343 1.0102466994491204 -1.4427818101360423
-8.059652306990996 0.9743821971608698 -1.3915619926802802
-8.031709907107796 0.9314349720202373 -1.330226998700582
-8.258771054766102 0.9114058537454521 -1.3016224533596457
-8.389619258068084 0.8939021259021086 -1.2766245393296187
-8.456584388955187 0.8879606431145848 -1.2681392225295238
-8.72493870316066 0.8810683133453423 -1.2582959555077708
-9.006671820879301 0.8522235899741438 -1.2171014213201665
-9.011764579885984 0.8204194273447838 -1.1716803698549447
-9.169586141519538 0.8052810555408052 -1.150060534337772
-9.36237220880089 0.7877923460958645 -1.1250840688034882
-9.628177950977435 0.7743721908566215 -1.1059181008483938
-9.957875822708559 0.7582891916607959 -1.0829491976044407
-10.2879518226754 0.7353183763016654 -1.050143473436058
-10.711134102467852 0.7108519749155694 -1.0152018310643527
-11.211076079966952 0.6829876985624481 -0.9754075203313317
-11.50519461158117 0.6487218980855383 -0.9264708856808106
-12.20323783006664 0.6268872365818399 -0.8952877573764153
-12.365264345290301 0.5833008767280052 -0.8330399844300177
-12.56203891291359 0.5534753231919597 -0.7904446795975345
-12.72820830118113 0.5293918382996136 -0.756049898653127
-12.846752317908742 0.5082288079436877 -0.7258259590336891
-12.924675446269076 0.4972047707926174 -0.7100820023501371
-12.974319493302291 0.4885648406371646 -0.6977429033202364
-13.02237509480656 0.4750719395522303 -0.6784730435306192
-12.935911343053585 0.4644432711771124 -0.6632937319763719
-13.029227825416836 0.4522425061868264 -0.6458692337747661
-13.025793103100995 0.45066388184739986 -0.6436147245710196
-12.74424108652792 0.5169952771656632 -0.7383457745792193
-9.991215361055936 0.5649201766882297 -0.8067896243056878
-7.8958349810275505 0.6858228432037144 -0.9794565264995817
-6.271001290461383 0.7364119379765868 -1.0517052413623464
-5.0758376317473015 0.7682313454563685 -1.0971480647303111
-3.9225785729534195 0.8023155188858424 -1.145825309075066
-2.872630615368306 0.8267868819357249 -1.1807740374370181
-1.5110428938502536 0.8685566645669763 -1.2404274692438904

VECTORS D float
0.00032786106602270503 0.00032397767298856687 -0.0005048162407537847
0.02186322106966567 0.0304271192281804 -0.04696769816990143
0.02800637102181594 0.04749908275562521 -0.07228761450753833
0.03859701298416942 0.07400109251615673 -0.11100115685562198
0.04514827251940523 0.09427782209822914 -0.13902786538329004
0.05073812022206017 0.1133436851203569 -0.16426085220210926
0.05199021302463688 0.12409773942955986 -0.17738357213053269
0.057159866954156195 0.14410461955240736 -0.20254745853497372
0.06122523248127714 0.16238618981393887 -0.22467527236341894
0.06569981017540874 0.1831978947987296 -0.24985446200595832
0.06986031968352206 0.2050934853170617 -0.2761070345636279
0.07325452671665525 0.22696152472774875 -0.30205420386487886
0.07607291628187676 0.2492165147299143 -0.32840638017514934
0.07477535885772964 0.2597041233917305 -0.3391917939021708
0.0694861584115716 0.25547878018197634 -0.3310047831478194
0.06502270099338144 0.2518116940456808 -0.32460100817754184
0.06093475974891864 0.2494733158124427 -0.3195938267688134
0.05689154338004983 0.24574426565610996 -0.3131029332123667
0.05530165667673694 0.251533956307203 -0.3189349949265307
0.05711421018005835 0.27307243308579077 -0.34475988049668516
0.055127172967387394 0.2767067695164365 -0.34801118168069317
0.04929870569365378 0.26168110341630396 -0.3285147287191322
0.04668274979460839 0.2618432714955668 -0.32778030799245966
0.0454529793517813 0.2702101333008325 -0.3375636158315629
0.04360579785033094 0.2760510250715763 -0.34444783189649975
0.04201313207581997 0.2850443207734856 -0.3555538158464877
0.039784798221204544 0.2915916803584011 -0.3639219525251187
0.03691571499371242 0.2950174613147836 -0.36871662971583624
0.033697304219197026 0.2967423681580612 -0.371693954193863
0.030170182275653594 0.29643051478960225 -0.3724134573481096
0.02702004785157439 0.29868265833329083 -0.3764210763956084
0.02406981756575303 0.302658235776807 -0.3827859177311875
0.02075492387690078 0.29859073930032964 -0.3787069353929586
0.018414249869011967 0.3102760033532577 -0.3951689645742644
0.016285823032827995 0.32659107216894956 -0.4177893305085232
0.014145952482878555 0.3440496660678029 -0.44204548749804906
0.01224008310323377 0.3696352242826228 -0.4769400958075423
0.01020293640002118 0.3945253049689003 -0.5111428592992731
0.007946627543619146 0.4106650674362298 -0.5341312540677824
0.005676331669637151 0.4286644841259949 -0.5593879361540427
0.003603635927927307 0.43869223377967437 -0.5744611291243521
0.0017531178966012256 0.45721196361011834 -0.6006035112397499
3.276609679211593e-5 0.5442974713457494 -0.7170385586984667
-0.00191283645799172 0.6056227803463986 -0.7998602615125454
-0.0043343041820165925 0.7371326585985889 -0.9757486286435348
-0.006461692629623865 0.791000225572432 -1.0491318580130473
-0.008310988465245247 0.8234620082353857 -1.09407313591788
-0.010032606916449343 0.856445708159519 -1.1395892617516723
-0.011493869070556583 0.8783290200433831 -1.170189922618786
-0.013160139641425482 0.9158887386679253 -1.221068550013082
0.00032786106602270503 0.00032397767298856687 -0.0005048162407537847
0.02186322106966567 0.0304271192281804 -0.04696769816990143
0.02800637102181594 0.04749908275562521 -0.07228761450753833
0.03859701298416942 0.07400109251615673 -0.11100115685562198
0.04514827251940523 0.09427782209822914 -0.13902786538329004
0.05073812022206017 0.1133436851203569 -0.16426085220210926
0.05199021302463688 0.12409773942955986 -0.17738357213053269
0.057159866954156195 0.14410461955240736 -0.20254745853497372
0.06122523248127714 0.16238618981393887 -0.22467527236341894
0.06569981017540874 0.1831978947987296 -0.24985446200595832
0.06986031968352206 0.2050934853170617 -0.2761070345636279
0.07325452671665525 0.22696152472774875 -0.30205420386487886
0.07607291628187676 0.2492165147299143 -0.32840638017514934
0.07477535885772964 0.2597041233917305 -0.3391917939021708
0.0694861584115716 0.25547878018197634 -0.3310047831478194
0.06502270099338144 0.2518116940456808 -0.32460100817754184
0.06093475974891864 0.2494733158124427 -0.3195938267688134
0.05689154338004983 0.24574426565610996 -0.3131029332123667
0.05530165667673694 0.251533956307203 -0.3189349949265307
0.05711421018005835 0.27307243308579077 -0.34475988049668516
0.055127172967387394 0.2767067695164365 -0.34801118168069317
0.04929870569365378 0.26168110341630396 -0.3285147287191322