# vtk DataFile Version 4.0
[MyVLM domain - lattices] 
ASCII
DATASET UNSTRUCTURED_GRID
POINTS 152 float
0.0018916144324157278 0.0029501169483970176 0.009683327559739361
0.0010688609733395774 0.0014047335885638756 0.013651250016942342
0.00045780959861706216 -9.760853963808341e-5 0.0175565549550758
-0.00013255382275044122 -0.0016691697350333457 0.021320636866661156
-0.0007201482309470062 -0.0032628164564411427 0.024976499012535704
-0.0011946371146526612 -0.005001079612829949 0.028438344326576034
-0.0014108622120167862 -0.007132835517631164 0.031531907738035624
-0.0013224843579428829 -0.009450605371639423 0.03440246746613679
-0.0010167791708201568 -0.011651545672896372 0.03726207681384858
-0.0006138083932142036 -0.013938215604501527 0.03996890231423113
-0.00020084691410191335 -0.016217083559689597 0.042588435503402335
0.0001698744379422134 -0.018370645141137464 0.045202953846140655
0.0004739400232210948 -0.02045924332479936 0.04777020473580492
0.0007082255455298663 -0.02254988892234115 0.050243266696925144
0.0008836440760600275 -0.024632951693862395 0.052628882896074376
0.001017516815515788 -0.026659904349734958 0.05496103250725913
0.0011275777072549662 -0.02858630056208669 0.05727083718430122
0.0012277625198140337 -0.030401033526867356 0.05956607399512203
0.00132638558954348 -0.032131811298269426 0.061827341551306904
0.0014271324949937316 -0.033819447617725394 0.06402606176344225
0.0015306083418583354 -0.035490884777942294 0.06614336943507793
0.0016355657532635378 -0.03714673432707112 0.06817883635558866
0.0017398364473795213 -0.0387704995445452 0.07014401365307096
0.0018410131526058282 -0.04034309834478882 0.07205226274768971
0.001936923789896676 -0.04185050624365147 0.07391340368896658
0.0020259353317291845 -0.04328488985149574 0.07573292147537544
0.0021071205190511294 -0.044644177518907376 0.07751226669145268
0.002180316672546981 -0.04593136014574478 0.0792493450865714
0.0022461021518325993 -0.047153621970609697 0.08093912620270638
0.0023056987632523672 -0.04832126130428622 0.08257439908501574
0.0023607022647827588 -0.04944552678269242 0.0841472873538351
0.0024126938092907785 -0.050535712061940255 0.08565128352109734
0.0024629658139780817 -0.05159730758772924 0.0870825431353355
0.0025123806343549317 -0.05263129972598808 0.0884403755356909
0.0025613283706516186 -0.053634301468552366 0.08972715233081222
0.0026097549007438213 -0.054599246029658696 0.0909478217373619
0.0026572361369983943 -0.05551642995022257 0.09210917819053763
0.002703078927872171 -0.05637542404322398 0.09321852428570822
0.0027464329900004744 -0.05716967195024643 0.0942804508344601
0.0027864017842759935 -0.057900301643674205 0.09529416802202689
0.0028221433614242725 -0.058576500865469366 0.09625324252222765
0.0028529549202113143 -0.059213565161319016 0.09714696427867121
0.002878337166053322 -0.0598302873157902 0.09796217444193982
0.0028980365508205295 -0.060449790856570255 0.09868268174363677
0.0029120651374179955 -0.061100594614340996 0.09928851708353774
0.002920699186668212 -0.06181175139441518 0.09975933746835658
0.0029244586304951574 -0.06260510724624792 0.10007984612958475
0.002924070395798875 -0.06348816705406696 0.10024478809071256
0.0029204190990956736 -0.06444959516676983 0.1002621006600925
0.0029144889643634465 -0.0654582235440689 0.10015360793448519
0.002907300946956263 -0.06646557386765192 0.09995325479781256
0.006212993241944028 -0.009005668694534896 0.0013117963273390838
0.0072288922610571306 -0.013878703548600333 0.0029496721237458265
0.007974780507892725 -0.0174718872373451 0.0053909540399850716
0.008270023946844132 -0.020246301298338213 0.008312789307721669
0.008140225139500825 -0.022416092913306956 0.011565230456023813
0.007751519283975376 -0.02429623310437011 0.014927732400886322
0.007318662739924205 -0.026270899711633298 0.01813129092265411
0.0069707766105224795 -0.028222769970942887 0.021258056305191154
0.006702226685381192 -0.029909648035114342 0.024477615906419153
0.006460614097576536 -0.03157827865841887 0.02761719718938371
0.006208498480286784 -0.03316980486963249 0.03071801224901204
0.005928720355726676 -0.03459422105346651 0.03384308369561048
0.00562110152420414 -0.03593343130265279 0.03693506166603797
0.005297776270156929 -0.03727139799478158 0.039935155070579806
0.004977662142563614 -0.0386118281892939 0.04284076819827078
0.004680078492205027 -0.039916754955195984 0.04567848578039544
0.0044193472589770496 -0.04115027655197387 0.04847344648629649
0.0042022226504668725 -0.04230823391291634 0.05122856252583704
0.004028605706719037 -0.04342376275484765 0.053920632020312796
0.003894567528214928 -0.044541472355220386 0.05651841921737733
0.003794542923454683 -0.04569053046444884 0.05900150063831796
0.0037223892098821663 -0.04687240056774304 0.06136885153975855
0.0036720478837599236 -0.048070267113998984 0.06363224629734128
0.0036379885391020494 -0.04926374874606966 0.06580595609097944
0.003615480687410345 -0.05043672051334408 0.0679012717326441
0.003600729157216099 -0.051578615971289744 0.06992559192644897
0.0035909263662617956 -0.05268415257827428 0.07188261554786597
0.003584242976167935 -0.05375277375740865 0.07377273231622837
0.00357976601221264 -0.05478790853660077 0.07559354120034635
0.003577378730160166 -0.05579600927067195 0.0773405242127348
0.0035774796054096774 -0.05678449246924508 0.07900848825744858
0.003580588564800478 -0.05775892531510359 0.08059353515113613
0.0035870678637920984 -0.058721256535726796 0.08209430038012652
0.0035969747054953923 -0.059669181639985046 0.08351239756648049
0.0036100119296844893 -0.06059632660779885 0.08485228984710635
0.0036255480079795204 -0.06149298148199659 0.08612077620721142
0.0036426825552804717 -0.062347170848870016 0.08732624192174737
0.0036603380175139954 -0.0631465801195829 0.08847730975864726
0.003677362157174432 -0.06388315814275228 0.08957961719480075
0.0036926294639041822 -0.06455692239628162 0.09063315199204804
0.0037051326977571345 -0.0651763187884316 0.09163200026175798
0.003714058455611533 -0.0657562458644583 0.09256572993023393
0.003718842962038476 -0.06631541343457946 0.09342124024732294
0.003719206248598144 -0.06687713954950315 0.09418220373814286
0.003715164522496519 -0.06747037409317494 0.09482834947572473
0.0037070218583473346 -0.06812479333538551 0.09533889791225514
0.003695343396461056 -0.06886301320028479 0.09569801320716075
0.003680913018392471 -0.06969340820897035 0.09589983145764013
0.0036646790161518838 -0.07060556599732323 0.09595164347953997
0.003647691596346039 -0.0715692510018276 0.09587462044235606
0.0036310361855396924 -0.07253688479675291 0.09570207711844109
0.005410766489344848 -0.0080372832740556 0.004514872866242054
0.005892211109850776 -0.011593080913613813 0.007028710432901355
0.006132458642509649 -0.01436516798521517 0.009998552733107147
0.006047255650667177 -0.01661489610330125 0.013241399396304164
0.005720055990603616 -0.018550109265287787 0.016611716488730267
0.005325630843128663 -0.02047941419730892 0.019893415254404117
0.005016871435172548 -0.0225080562421249 0.02301280211096353
0.004834968294868498 -0.024437425632838433 0.026108945114352033
0.004732241848104854 -0.02625669266974969 0.029189427301936036
0.00464908530328423 -0.028049943718543156 0.032195370766602595
0.004547585503985086 -0.029734975808765503 0.03518433464792632
0.004411660012619469 -0.03130160569178684 0.038163449333361375
0.004242349868979272 -0.032827952517430446 0.04107801520532292
0.00405227310746894 -0.03435406489605375 0.043899989924943913
0.003859297849485217 -0.035859825684633376 0.04664345966741652
0.0036804214720396232 -0.03730591242916641 0.04933595831145452
0.003527506244425096 -0.038670358185453085 0.05199286727697798
0.003405829147614405 -0.0399661043535536 0.05460512489810981
0.003315379723667389 -0.04123087053077487 0.057146319628477445
0.003253134023982613 -0.042500792606834426 0.05959114884570076
0.003214621311891553 -0.04379080152519864 0.06192915779061201
0.0031948391851961662 -0.0450931546146053 0.0641657679399949
0.0031888698585714084 -0.0463894556836925 0.06631386044571536
0.0031922930777549615 -0.047661876545835195 0.06838591873844087
0.003201436081938149 -0.04889767569363109 0.07039086451770266
0.0032135028026517493 -0.0500896716273869 0.07233372632372162
0.003226618152360912 -0.05123578958396262 0.07421595692128839
0.0032398057236901635 -0.052338378624797836 0.07603591147987525
0.003252904392775423 -0.053403329587089265 0.0777894651908707
0.003266372004343082 -0.054438536663341225 0.07947109048117512
0.0032809500730880004 -0.05545143652470985 0.08107558013758583
0.0032973286136308236 -0.0564466956502701 0.0825996666562776
0.0033159342695244357 -0.05742499023010661 0.08404287656385594
0.0033368336138182735 -0.05838276574223652 0.08540769876340797
0.0033597203855484335 -0.05931268397094968 0.08669927152889094
0.0033839603409402744 -0.060204516621560136 0.087924756789347
0.003408672097906746 -0.06104663836235067 0.08909229468967872
0.0034328265552422406 -0.061829288847559505 0.09020871949756404
0.0034553512046890385 -0.06254877690137779 0.09127661580212917
0.003475228953835527 -0.06320956575791041 0.09229285841320908
0.0034915839677176984 -0.06382346999818227 0.09324917467210933
0.0035037495424018335 -0.06440735379677782 0.09413375615666021
0.0035113151685979642 -0.06498221714057605 0.09493189851774676
0.003514151750190315 -0.0655741157998682 0.09562535730859717
0.003512415433327221 -0.0662122310368047 0.09619369958947925
0.0035065316976985676 -0.06692253478095925 0.09661873961952362
0.0034971622838568268 -0.06772031731601004 0.09688977102683749
0.003485158199815951 -0.06860433560496469 0.09700766419529316
0.0034715024876191118 -0.0695540337135364 0.09698681254503322
0.003457246657122113 -0.07053027560093279 0.09685461942683615

CELLS 100 350
4 0 51 52 1
4 1 52 53 2
4 2 53 54 3
4 3 54 55 4
4 4 55 56 5
4 5 56 57 6
4 6 57 58 7
4 7 58 59 8
4 8 59 60 9
4 9 60 61 10
4 10 61 62 11
4 11 62 63 12
4 12 63 64 13
4 13 64 65 14
4 14 65 66 15
4 15 66 67 16
4 16 67 68 17
4 17 68 69 18
4 18 69 70 19
4 19 70 71 20
4 20 71 72 21
4 21 72 73 22
4 22 73 74 23
4 23 74 75 24
4 24 75 76 25
4 25 76 77 26
4 26 77 78 27
4 27 78 79 28
4 28 79 80 29
4 29 80 81 30
4 30 81 82 31
4 31 82 83 32
4 32 83 84 33
4 33 84 85 34
4 34 85 86 35
4 35 86 87 36
4 36 87 88 37
4 37 88 89 38
4 38 89 90 39
4 39 90 91 40
4 40 91 92 41
4 41 92 93 42
4 42 93 94 43
4 43 94 95 44
4 44 95 96 45
4 45 96 97 46
4 46 97 98 47
4 47 98 99 48
4 48 99 100 49
4 49 100 101 50
1 102
1 103
1 104
1 105
1 106
1 107
1 108
1 109
1 110
1 111
1 112
1 113
1 114
1 115
1 116
1 117
1 118
1 119
1 120
1 121
1 122
1 123
1 124
1 125
1 126
1 127
1 128
1 129
1 130
1 131
1 132
1 133
1 134
1 135
1 136
1 137
1 138
1 139
1 140
1 141
1 142
1 143
1 144
1 145
1 146
1 147
1 148
1 149
1 150
1 151

CELL_TYPES 100
9
9
9
9
9
9
9
9
9
9
9
9
9
9
9
9
9
9
9
9
9
9
9
9
9
9
9
9
9
9
9
9
9
9
9
9
9
9
9
9
9
9
9
9
9
9
9
9
9
9
1
1
1
1
1
1
1
1
1
1
1
1
1
1
1
1
1
1
1
1
1
1
1
1
1
1
1
1
1
1
1
1
1
1
1
1
1
1
1
1
1
1
1
1
1
1
1
1
1
1

CELL_DATA 100

VECTORS S float
-1.1306739861970807e-16 -1.2710112082075456e-16 -2.8437061162436698e-18
-8.2971826111874e-18 -2.564322380756332e-17 2.196745694141639e-17
-1.019647218290508e-17 9.67135951864003e-18 -1.809878587559148e-17
-2.576318120236e-19 -4.84552778944761e-18 5.34217485848178e-18
1.7139494496784998e-19 -4.32262476818135e-18 4.95183193227888e-18
-7.8953407670137e-19 3.934571332178871e-17 -4.4368833711676275e-17
2.6144323997364e-19 -1.446063804861354e-17 1.6188417283489858e-17
9.1513311223903e-19 -5.2756139237668017e-17 5.866854107202489e-17
1.4929894231048998e-18 -8.815757101761785e-17 9.741829616341443e-17
1.0494574356184999e-18 -6.10269046661884e-17 6.691792891839867e-17
-8.1826149871057e-19 4.7504549713725405e-17 -5.1783017905141285e-17
1.48464230232501e-18 -8.543258024235236e-17 9.261845532532742e-17
9.088073545243e-20 -5.20368427809361e-18 5.613165607354589e-18
2.5611666549588997e-19 -1.446234079827352e-17 1.552991056146138e-17
-1.49168244327129e-18 8.531124076857155e-17 -9.121726973679561e-17
-1.08255466094955e-18 6.301996579621699e-17 -6.709214221800692e-17
1.3509187339421899e-18 -8.055554825710173e-17 8.557282229665588e-17
-1.37013682133468e-18 8.357157459394495e-17 -8.842618511313359e-17
-1.6968921369591698e-18 1.048286461543759e-16 -1.1051752466552461e-16
2.17726644693576e-18 -1.3337565045781777e-16 1.4014994771671577e-16
3.1708214295595e-19 -1.9866190060179948e-17 2.0809531665440777e-17
1.2330547643518899e-18 -8.052160021598903e-17 8.409876889463739e-17
6.269722387529299e-19 -4.1863191592482467e-17 4.3611742195018315e-17
1.65259983531715e-18 -1.127863211663145e-16 1.1724503307787087e-16
3.7187449044166997e-19 -2.616836582720762e-17 2.7156706369190198e-17
-1.7037263465195999e-19 1.2555673631387349e-17 -1.302529667768749e-17
1.4342014744598e-19 -1.1017543720822989e-17 1.1419819977487789e-17
-3.30812846494e-21 2.7075844092486e-19 -2.8083225692766e-19
8.0347978257487995e-19 -7.06701717870403e-17 7.338844325701901e-17
3.4568656295551997e-19 -3.2933951202587256e-17 3.425898413371768e-17
-4.0139084352036996e-19 4.115201062282838e-17 -4.2898951892003215e-17
-5.046713124359299e-19 5.664645432924734e-17 -5.919623829953141e-17
-2.9326314630973e-19 3.57833072512413e-17 -3.749549753095668e-17
1.4335649505070998e-19 -1.8699973867554748e-17 1.965139787530519e-17
9.12523220053e-20 -1.2638719566772749e-17 1.332141764504462e-17
-1.7366636622237999e-19 2.542743393116116e-17 -2.688175656661534e-17
7.729860964426999e-20 -1.174144958221437e-17 1.2450194700216379e-17
-4.3341444452800997e-19 6.773914632395773e-17 -7.203848711938976e-17
-1.8167549058719998e-19 2.927048022543778e-17 -3.12348852750173e-17
-1.2305166850651e-19 2.012165925675768e-17 -2.153132769861315e-17
-9.072825745052999e-20 1.5199063192953768e-17 -1.6305892758710558e-17
3.3671767826419996e-20 -5.6190833556625e-18 6.042745604801219e-18
-4.1292143924691997e-19 5.626002981626258e-17 -6.063652644787814e-17
1.8903523984726999e-19 -2.117682566053822e-17 2.28722887180874e-17
2.2895802059767e-19 -1.9100582819056138e-17 2.066941031961963e-17
-3.718877494401e-19 2.500754989407728e-17 -2.7107112666980117e-17
8.604350871010299e-19 -4.8437949411569666e-17 5.2581342506613287e-17
-2.34782863301953e-18 1.0374010453879785e-16 -1.1275667838890458e-16
3.2771018228269597e-18 -1.0963811600911211e-16 1.192965758006229e-16
3.2926284496494097e-18 -5.777010667783996e-17 6.292302621602775e-17
-1.1306739861970807e-16 -1.2710112082075456e-16 -2.8437061162436698e-18
-8.2971826111874e-18 -2.564322380756332e-17 2.196745694141639e-17
-1.019647218290508e-17 9.67135951864003e-18 -1.809878587559148e-17
-2.576318120236e-19 -4.84552778944761e-18 5.34217485848178e-18
1.7139494496784998e-19 -4.32262476818135e-18 4.95183193227888e-18
-7.8953407670137e-19 3.934571332178871e-17 -4.4368833711676275e-17
2.6144323997364e-19 -1.446063804861354e-17 1.6188417283489858e-17
9.1513311223903e-19 -5.2756139237668017e-17 5.866854107202489e-17
1.4929894231048998e-18 -8.815757101761785e-17 9.741829616341443e-17
1.0494574356184999e-18 -6.10269046661884e-17 6.691792891839867e-17
-8.1826149871057e-19 4.7504549713725405e-17 -5.1783017905141285e-17
1.48464230232501e-18 -8.543258024235236e-17 9.261845532532742e-17
9.088073545243e-20 -5.20368427809361e-18 5.613165607354589e-18
2.5611666549588997e-19 -1.446234079827352e-17 1.552991056146138e-17
-1.49168244327129e-18 8.531124076857155e-17 -9.121726973679561e-17
-1.08255466094955e-18 6.301996579621699e-17 -6.709214221800692e-17
1.3509187339421899e-18 -8.055554825710173e-17 8.557282229665588e-17
-1.37013682133468e-18 8.357157459394495e-17 -8.842618511313359e-17
-1.6968921369591698e-18 1.048286461543759e-16 -1.1051752466552461e-16
2.17726644693576e-18 -1.3337565045781777e-16 1.4014994771671577e-16
3.1708214295595e-19 -1.9866190060179948e-17 2.0809531665440777e-17
1.2330547643518899e-18 -8.052160021598903e-17 8.409876889463739e-17
6.269722387529299e-19 -4.1863191592482467e-17 4.3611742195018315e-17
1.65259983531715e-18 -1.127863211663145e-16 1.1724503307787087e-16
3.7187449044166997e-19 -2.616836582720762e-17 2.7156706369190198e-17
-1.7037263465195999e-19 1.2555673631387349e-17 -1.302529667768749e-17
1.4342014744598e-19 -1.1017543720822989e-17 1.1419819977487789e-17
-3.30812846494e-21 2.7075844092486e-19 -2.8083225692766e-19
8.0347978257487995e-19 -7.06701717870403e-17 7.338844325701901e-17
3.4568656295551997e-19 -3.2933951202587256e-17 3.425898413371768e-17
-4.0139084352036996e-19 4.115201062282838e-17 -4.2898951892003215e-17
-5.046713124359299e-19 5.664645432924734e-17 -5.919623829953141e-17
-2.9326314630973e-19 3.57833072512413e-17 -3.749549753095668e-17
1.4335649505070998e-19 -1.8699973867554748e-17 1.965139787530519e-17
9.12523220053e-20 -1.2638719566772749e-17 1.332141764504462e-17
-1.7366636622237999e-19 2.542743393116116e-17 -2.688175656661534e-17
7.729860964426999e-20 -1.174144958221437e-17 1.2450194700216379e-17
-4.3341444452800997e-19 6.773914632395773e-17 -7.203848711938976e-17
-1.8167549058719998e-19 2.927048022543778e-17 -3.12348852750173e-17
-1.2305166850651e-19 2.012165925675768e-17 -2.153132769861315e-17
-9.072825745052999e-20 1.5199063192953768e-17 -1.6305892758710558e-17
3.3671767826419996e-20 -5.6190833556625e-18 6.042745604801219e-18
-4.1292143924691997e-19 5.626002981626258e-17 -6.063652644787814e-17
1.8903523984726999e-19 -2.117682566053822e-17 2.28722887180874e-17
2.2895802059767e-19 -1.9100582819056138e-17 2.066941031961963e-17
-3.718877494401e-19 2.500754989407728e-17 -2.7107112666980117e-17
8.604350871010299e-19 -4.8437949411569666e-17 5.2581342506613287e-17
-2.34782863301953e-18 1.0374010453879785e-16 -1.1275667838890458e-16
3.2771018228269597e-18 -1.0963811600911211e-16 1.192965758006229e-16
3.2926284496494097e-18 -5.777010667783996e-17 6.292302621602775e-17

SCALARS Gamma float
LOOKUP_TABLE default
-0.00010290355672268466
-0.0005514738950271219
0.000198926487306474
-0.005271298439269779
0.01525137301537828
0.062180029973382046
0.1118829954127273
0.15624096500939594
0.20370548070226607
0.23751917494727076
0.25646685203866154
0.2659567762050422
0.26597809430347
0.24091311042931615
0.22899933973540454
0.22319610472296578
0.2117988292242725
0.20919335255968718
0.20514640435901416
0.19958619881995285
0.19975501870241272
0.1982124634734287
0.1920333749768567
0.18934754027964326
0.18725432627905683
0.1877190440096226
0.1876479964654524
0.1883757447386775
0.18984392858863883
0.19176216036898602
0.19038059020585218
0.19614939691975494
0.19370267817051637
0.1912019922592767
0.18850793548806738
0.18520900511763166
0.18139042949213383
0.17706957982386554
0.17138611642353402
0.16390373322740762
0.15781082365180735
0.1469931868487448
0.13169230237196147
0.11282696049583908
0.09647393198463412
0.08006425332567775
0.0678219792027649
0.05413882039848226
0.04116434322165609
0.022248653683758137
-0.00010290355672268466
-0.0005514738950271219
0.000198926487306474
-0.005271298439269779
0.01525137301537828
0.062180029973382046
0.1118829954127273
0.15624096500939594
0.20370548070226607
0.23751917494727076
0.25646685203866154
0.2659567762050422
0.26597809430347
0.24091311042931615
0.22899933973540454
0.22319610472296578
0.2117988292242725
0.20919335255968718
0.20514640435901416
0.19958619881995285
0.19975501870241272
0.1982124634734287
0.1920333749768567
0.18934754027964326
0.18725432627905683
0.1877190440096226
0.1876479964654524
0.1883757447386775
0.18984392858863883
0.19176216036898602
0.19038059020585218
0.19614939691975494
0.19370267817051637
0.1912019922592767
0.18850793548806738
0.18520900511763166
0.18139042949213383
0.17706957982386554
0.17138611642353402
0.16390373322740762
0.15781082365180735
0.1469931868487448
0.13169230237196147
0.11282696049583908
0.09647393198463412
0.08006425332567775
0.0678219792027649
0.05413882039848226
0.04116434322165609
0.022248653683758137

VECTORS Ftot float
0.06909326752536822 -0.0603317670192517 -0.05062436345412728
0.047606217106012066 -0.05478209668840558 -0.045967637126358846
0.022497831439521908 -0.04159292716586716 -0.03490060984446233
0.11278653336091404 -0.08006759809384328 -0.06718469202979406
-0.16916677296054236 -0.1730545828697769 -0.1452100366595667
-0.9882994847886346 -0.368787637515179 -0.30944957062172473
-2.061614291231984 -0.614629540047207 -0.5157354203642687
-3.24345282061848 -0.8414699549938304 -0.70607712888208
-4.686204306834067 -1.090824225236019 -0.9153102050747788
-5.973209468921896 -1.2855838217533155 -1.0787329106806767
-6.987908889707787 -1.4106386016426886 -1.1836663303628048
-7.788396708889183 -1.4984812240693404 -1.2573750424426529
-8.318750069928589 -1.5313877860394265 -1.284986926455064
-7.999298007661583 -1.4314949506949874 -1.2011668851602932
-8.04227209201843 -1.3677691203448314 -1.1476945644170118
-8.25672043605098 -1.3295233900903156 -1.1156025862663421
-8.220908892265141 -1.2690253648032943 -1.0648387155610493
-8.49457305564666 -1.2417032803113546 -1.0419127645408683
-8.685792241593838 -1.2187485401922007 -1.022651450573116
-8.782508691436533 -1.2120946824145817 -1.01706820096601
-9.11900502220077 -1.2023160841283929 -1.0088629827506381
-9.368627407596186 -1.1605002560251825 -0.973775336811862
-9.3737219236441 -1.1154897351529955 -0.936007025348913
-9.526334690935734 -1.092819428236396 -0.9169843791765189
-9.693709925471042 -1.066148408770536 -0.8946047365795935
-9.982370275312475 -1.0458571714234617 -0.8775783668055332
-10.236496363428236 -1.0229538436092855 -0.8583601928839258
-10.524547018643917 -0.9915800160487891 -0.832034425749294
-10.847966384716141 -0.9588738998954682 -0.8045907357478012
-11.192133529252239 -0.9239882833613812 -0.775318227780657
-11.334025475452997 -0.8824284753286112 -0.7404454081885614
-11.897817324485787 -0.8608691498072992 -0.7223549860951978
-11.956668165202863 -0.8115187646144842 -0.6809450960814504
-11.99661103865538 -0.7780128631275823 -0.6528303065015288
-12.009839849991096 -0.7502625909893362 -0.6295450633852576
-11.96991952603371 -0.7240682714391862 -0.6075654195117871
-11.88101470412141 -0.7094545358557744 -0.595303039373624
-11.744009105643793 -0.6980592036127192 -0.5857412202913339
-11.500827427751469 -0.6825266385659515 -0.5727078506893541
-11.118807003460024 -0.6658722409342546 -0.5587331517791176
-10.814151430246618 -0.6468569439352381 -0.5427774230805166
-10.166974870142642 -0.6240046352165662 -0.5236020592631297
-9.18464364798893 -0.704939882878699 -0.5915147957256667
-7.929115970496069 -0.7552198730672623 -0.6337047169484872
-6.825585966116621 -0.8895117024430307 -0.7463889414478156
-5.69925857732873 -0.9370033762437014 -0.7862391874179497
-4.854184379408441 -0.9675110243739412 -0.8118381437121202
-3.8927998830200243 -1.0014913118881477 -0.8403509904325883
-2.9712921138255144 -1.021058625869758 -0.8567699163776876
-1.6092157728989676 -1.0658023544601087 -0.894314362535347
0.06909326752536822 -0.0603317670192517 -0.05062436345412728
0.047606217106012066 -0.05478209668840558 -0.045967637126358846
0.022497831439521908 -0.04159292716586716 -0.03490060984446233
0.11278653336091404 -0.08006759809384328 -0.06718469202979406
-0.16916677296054236 -0.1730545828697769 -0.1452100366595667
-0.9882994847886346 -0.368787637515179 -0.30944957062172473
-2.061614291231984 -0.614629540047207 -0.5157354203642687
-3.24345282061848 -0.8414699549938304 -0.70607712888208
-4.686204306834067 -1.090824225236019 -0.9153102050747788
-5.973209468921896 -1.2855838217533155 -1.0787329106806767
-6.987908889707787 -1.4106386016426886 -1.1836663303628048
-7.788396708889183 -1.4984812240693404 -1.2573750424426529
-8.318750069928589 -1.5313877860394265 -1.284986926455064
-7.999298007661583 -1.4314949506949874 -1.2011668851602932
-8.04227209201843 -1.3677691203448314 -1.1476945644170118
-8.25672043605098 -1.3295233900903156 -1.1156025862663421
-8.220908892265141 -1.2690253648032943 -1.0648387155610493
-8.49457305564666 -1.2417032803113546 -1.0419127645408683
-8.685792241593838 -1.2187485401922007 -1.022651450573116
-8.782508691436533 -1.2120946824145817 -1.01706820096601
-9.11900502220077 -1.2023160841283929 -1.0088629827506381
-9.368627407596186 -1.1605002560251825 -0.973775336811862
-9.3737219236441 -1.1154897351529955 -0.936007025348913
-9.526334690935734 -1.092819428236396 -0.9169843791765189
-9.693709925471042 -1.066148408770536 -0.8946047365795935
-9.982370275312475 -1.0458571714234617 -0.8775783668055332
-10.236496363428236 -1.0229538436092855 -0.8583601928839258
-10.524547018643917 -0.9915800160487891 -0.832034425749294
-10.847966384716141 -0.9588738998954682 -0.8045907357478012
-11.192133529252239 -0.9239882833613812 -0.775318227780657
-11.334025475452997 -0.8824284753286112 -0.7404454081885614
-11.897817324485787 -0.8608691498072992 -0.7223549860951978
-11.956668165202863 -0.8115187646144842 -0.6809450960814504
-11.99661103865538 -0.7780128631275823 -0.6528303065015288
-12.009839849991096 -0.7502625909893362 -0.6295450633852576
-11.96991952603371 -0.7240682714391862 -0.6075654195117871
-11.88101470412141 -0.7094545358557744 -0.595303039373624
-11.744009105643793 -0.6980592036127192 -0.5857412202913339
-11.500827427751469 -0.6825266385659515 -0.5727078506893541
-11.118807003460024 -0.6658722409342546 -0.5587331517791176
-10.814151430246618 -0.6468569439352381 -0.5427774230805166
-10.166974870142642 -0.6240046352165662 -0.5236020592631297
-9.18464364798893 -0.704939882878699 -0.5915147957256667
-7.929115970496069 -0.7552198730672623 -0.6337047169484872
-6.825585966116621 -0.8895117024430307 -0.7463889414478156
-5.69925857732873 -0.9370033762437014 -0.7862391874179497
-4.854184379408441 -0.9675110243739412 -0.8118381437121202
-3.8927998830200243 -1.0014913118881477 -0.8403509904325883
-2.9712921138255144 -1.021058625869758 -0.8567699163776876
-1.6092157728989676 -1.0658023544601087 -0.894314362535347

VECTORS D float
0.06858179466869326 -0.05984917259941756 -0.051857749096158506
0.04355976980986448 -0.05569025885899525 -0.048556116898428876
0.024421178255326404 -0.040149275784651196 -0.035212745742248024
0.049062675119436544 -0.09654692924444386 -0.0852051336401592
0.05070660969473773 -0.11431285027777299 -0.10154270609076198
0.05124018989074447 -0.12871072704211942 -0.11505083223114461
0.06136692241144341 -0.16833929850327506 -0.15136363173284786
0.06670119909518227 -0.19669485511956547 -0.1779130936139116
0.0710220052196433 -0.22281933810827428 -0.20272625886261675
0.07412962436880255 -0.24610351058972765 -0.22560069637953617
0.07512405595740629 -0.26337493951388735 -0.242801202763725
0.07823990039579369 -0.2895763520822623 -0.2683635039486119
0.0793771473663485 -0.31024373617920037 -0.2888965726824061
0.07731408136021385 -0.3191451901434178 -0.2984813022813427
0.07119855506169714 -0.31032001105492574 -0.2913920893453625
0.06613436029747213 -0.3048678560085503 -0.28743091635607443
0.06181862709679875 -0.2998824913258057 -0.2832758087476891
0.05732083522653303 -0.29296407836974186 -0.2777684764345743
0.055282314372886415 -0.29732787506019304 -0.28287176016385956
0.0573559687018444 -0.3244152736432247 -0.30962535536947927
0.05491622310336065 -0.3267359707755215 -0.31276109204501473
0.04919429087559375 -0.3082818490690445 -0.29589026553411624
0.04648479240797307 -0.3075633883652 -0.2959003488240268
0.04520579155354072 -0.3168947778989366 -0.3054807725281298
0.043329900079634186 -0.32320444193796 -0.3120350915506367
0.0415936629508922 -0.33426581056543037 -0.3227580107817431
0.03957314841190912 -0.3407260361699554 -0.3292205651679989
0.036822549342777726 -0.3442189432004708 -0.332305124569198
0.033923135522358004 -0.3459424545065323 -0.3335003190658351
0.03093564763761401 -0.34577687204571744 -0.3327154309115422
0.028331179194547237 -0.34866138008821934 -0.33472819404130905
0.0259286617153242 -0.3528808226816311 -0.3379020936470242
0.023157148484701382 -0.35003913897181377 -0.3342361089532339
0.02136572045304206 -0.3602763172375498 -0.3429893728175685
0.01979914768302371 -0.3741563170383033 -0.35511712112285376
0.018237602262285435 -0.3881784762173697 -0.36729555939404346
0.0170655244363888 -0.4113669304665169 -0.3880552337941116
0.01585738377892213 -0.4355261560577657 -0.409628852746235
0.014607673612259679 -0.4501708533869678 -0.4219439515259828
0.013203937139286585 -0.4656438176090659 -0.4352333089076015
0.011692412654142779 -0.4738949249608732 -0.4417924151793308
0.010243550159840508 -0.47901540036206297 -0.44548828591829065
0.010758843856542412 -0.5824428485006873 -0.5404777697544757
0.009942503286908036 -0.6579116658592875 -0.6092245644140827
0.010432361339131188 -0.8039187645085105 -0.743016142047979
0.009592020933716158 -0.8637191502702892 -0.7969519721754489
0.008548039177147188 -0.9029542913648223 -0.8319416590289808
0.007583546750821181 -0.9440538777458066 -0.8687206313222484
0.006575865682447528 -0.9693477881930496 -0.8910483333080323
0.005814842800188473 -1.0186915786287143 -0.9355727279219295
0.06858179466869326 -0.05984917259941756 -0.051857749096158506
0.04355976980986448 -0.05569025885899525 -0.048556116898428876
0.024421178255326404 -0.040149275784651196 -0.035212745742248024
0.049062675119436544 -0.09654692924444386 -0.0852051336401592
0.05070660969473773 -0.11431285027777299 -0.10154270609076198
0.05124018989074447 -0.12871072704211942 -0.11505083223114461
0.06136692241144341 -0.16833929850327506 -0.15136363173284786
0.06670119909518227 -0.19669485511956547 -0.1779130936139116
0.0710220052196433 -0.22281933810827428 -0.20272625886261675
0.07412962436880255 -0.24610351058972765 -0.22560069637953617
0.07512405595740629 -0.26337493951388735 -0.242801202763725
0.07823990039579369 -0.2895763520822623 -0.2683635039486119
0.0793771473663485 -0.31024373617920037 -0.2888965726824061
0.07731408136021385 -0.3191451901434178 -0.2984813022813427
0.07119855506169714 -0.31032001105492574 -0.2913920893453625
0.06613436029747213 -0.3048678560085503 -0.28743091635607443
0.06181862709679875 -0.2998824913258057 -0.2832758087476891
0.05732083522653303 -0.29296407836974186 -0.2777684764345743
0.055282314372886415 -0.29732787506019304 -0.28287176016385956
0.0573559687018444 -0.3244152736432247 -0.30962535536947927
0.05491622310336065 -0.3267359707755215 -0.31276109204501473