# vtk DataFile Version 4.0
[MyVLM domain - lattices] 
ASCII
DATASET UNSTRUCTURED_GRID
POINTS 152 float
0.0018916144324157278 -0.010108350874058186 -0.0005396899529873402
0.0010688609733395774 -0.013308426088719287 -0.003348984700025597
0.00045780959861706216 -0.016464381050990247 -0.006096417466463639
-0.00013255382275044122 -0.019463955462046576 -0.008860593759780046
-0.0007201482309470062 -0.02235428286306905 -0.011608510319137524
-0.0011946371146526612 -0.025012832345089192 -0.014425964210659491
-0.0014108622120167862 -0.0271907275946756 -0.017487220505092455
-0.0013224843579428829 -0.02909544741103364 -0.02064700098321412
-0.0010167791708201568 -0.031029835296121664 -0.023693252342055413
-0.0006138083932142036 -0.03279133206684018 -0.02676780804855623
-0.00020084691410191335 -0.03447346932995443 -0.029805176566598632
0.0001698744379422134 -0.03619375148278758 -0.03272308043140419
0.0004739400232210948 -0.03789183554938536 -0.035563772249614066
0.0007082255455298663 -0.039500710718081936 -0.03837417349669824
0.0008836440760600275 -0.041030007228777726 -0.04114754100608367
0.001017516815515788 -0.04252825237110089 -0.043849895603763844
0.0011275777072549662 -0.044039892472923545 -0.046450115635916944
0.0012277625198140337 -0.04557603433829594 -0.04894042403462157
0.00132638558954348 -0.04710896991302563 -0.051340222188292435
0.0014271324949937316 -0.04859788545568009 -0.05367808818634308
0.0015306083418583354 -0.050015838673552304 -0.05597288722522364
0.0016355657532635378 -0.05136221801849127 -0.05822504751555942
0.0017398364473795213 -0.05265352021106365 -0.06042301792925389
0.0018410131526058282 -0.053908827336845176 -0.0625534370461422
0.001936923789896676 -0.05514216387998634 -0.06460648481670261
0.0020259353317291845 -0.05636136323012457 -0.06657667624246133
0.0021071205190511294 -0.05756849703667411 -0.06846256073888192
0.002180316672546981 -0.058760574399776555 -0.07026623255659128
0.0022461021518325993 -0.059930411080830186 -0.07199272215361466
0.0023056987632523672 -0.06106770876905086 -0.0736492404847939
0.0023607022647827588 -0.06216121882852054 -0.07524366392979343
0.0024126938092907785 -0.06320164760312727 -0.07678249997668034
0.0024629658139780817 -0.06418350464717153 -0.07826959307692156
0.0025123806343549317 -0.06510580359472459 -0.07970563389137585
0.0025613283706516186 -0.0659719314539509 -0.08108825081139445
0.0026097549007438213 -0.06678895501061385 -0.08241249562031495
0.0026572361369983943 -0.06756657772379791 -0.08367157388293968
0.002703078927872171 -0.06831522878052314 -0.08485818300389981
0.0027464329900004744 -0.06904146453920598 -0.08596773217160891
0.0027864017842759935 -0.06974415702746219 -0.08700101120083337
0.0028221433614242725 -0.0704141185033297 -0.08796445341775411
0.0028529549202113143 -0.07103605342112136 -0.08886876887876231
0.002878337166053322 -0.0715911689962702 -0.08972711643327574
0.0028980365508205295 -0.07205634170108884 -0.09055568734969108
0.0029120651374179955 -0.07240305270489546 -0.09137445072823266
0.002920699186668212 -0.07260224920237732 -0.09220374956218665
0.0029244586304951574 -0.0726320851440793 -0.09305888062006157
0.002924070395798875 -0.07248505564577365 -0.0939450988783671
0.0029204190990956736 -0.07217249635856285 -0.09485446702875078
0.0029144889643634465 -0.07172557532273453 -0.09576516097445198
0.002907300946956263 -0.07119277085660092 -0.09664323583154873
0.006212993241944028 0.0018474347688737802 -0.008911221185387756
0.0072288922610571306 0.0019750110484449902 -0.014050562593222293
0.007974780507892725 0.0009098976467168461 -0.01826201838155457
0.008270023946844132 -0.000886823898741628 -0.02186844131871975
0.008140225139500825 -0.0032010064062031524 -0.02501977887564964
0.007751519283975376 -0.005717678853548946 -0.027936576136349426
0.007318662739924205 -0.00805266340067338 -0.030887837320474194
0.0069707766105224795 -0.010323282811730089 -0.03379141214415997
0.006702226685381192 -0.012771732933903615 -0.03647771324948505
0.006460614097576536 -0.01515126901292275 -0.03911951317340385
0.006208498480286784 -0.017520748020011467 -0.041675599820989125
0.005928720355726676 -0.019970175570458458 -0.04408295058193455
0.00562110152420414 -0.02241764757153187 -0.04639891531938119
0.005297776270156929 -0.02477920164564144 -0.04868228512304375
0.004977662142563614 -0.02705113073334616 -0.05093565570388742
0.004680078492205027 -0.0292714017656398 -0.05313244233062769
0.0044193472589770496 -0.03147591648303631 -0.05524750633392183
0.0042022226504668725 -0.03366883395224691 -0.057277935503906696
0.004028605706719037 -0.03581701845644736 -0.05924693171928668
0.003894567528214928 -0.03787586071818506 -0.061185730732408114
0.003794542923454683 -0.039816192987045716 -0.06311475602198373
0.0037223892098821663 -0.0416365517778193 -0.06503503233138964
0.0036720478837599236 -0.04335375264160983 -0.06693478528498369
0.0036379885391020494 -0.0449881769355643 -0.06879974370285256
0.003615480687410345 -0.0465559496102937 -0.07061861677302521
0.003600729157216099 -0.04806763711033053 -0.0723840057913879
0.0035909263662617956 -0.04952852197730718 -0.07409221188246873
0.003584242976167935 -0.05093916078811266 -0.0757428453269344
0.00357976601221264 -0.052296124514839074 -0.07733830715597477
0.003577378730160166 -0.053592960802665096 -0.07888311535707494
0.0035774796054096774 -0.05482225314196785 -0.08038246302618003
0.003580588564800478 -0.05597843434996389 -0.08184024834664164
0.0035870678637920984 -0.05705955569917393 -0.08325783583213063
0.0035969747054953923 -0.05806792168072761 -0.08463361186058634
0.0036100119296844893 -0.05900990631470439 -0.08596311329510038
0.0036255480079795204 -0.05989521955827592 -0.08723954115046552
0.0036426825552804717 -0.060735836825150435 -0.08845451015173003
0.0036603380175139954 -0.061544072704164184 -0.08959939753096086
0.003677362157174432 -0.06232797834670011 -0.09066856581126835
0.0036926294639041822 -0.06308753627485475 -0.0916620272308123
0.0037051326977571345 -0.06381430058036743 -0.09258569567822385
0.003714058455611533 -0.06449337271798206 -0.09345000322719968
0.003718842962038476 -0.06510604287748091 -0.09426805062789269
0.003719206248598144 -0.0656289930081559 -0.09505616535518506
0.003715164522496519 -0.06603327322606148 -0.09583461833604576
0.0037070218583473346 -0.06628920726140695 -0.09662418911828817
0.003695343396461056 -0.06637417919004239 -0.09744071354248565
0.003680913018392471 -0.06627981449087023 -0.09829005551143961
0.0036646790161518838 -0.06601652552800942 -0.0991649242093034
0.003647691596346039 -0.06561454786497581 -0.10004414846658118
0.0036310361855396924 -0.0651214599274999 -0.10089441351092027
0.005410766489344848 -0.0014936799388526446 -0.009096753248605385
0.005892211109850776 -0.002639760131778002 -0.01329789313635248
0.006132458642509649 -0.004482389408638897 -0.01691854879088333
0.006047255650667177 -0.006760216154993745 -0.02014172058275322
0.005720055990603616 -0.009265396373426818 -0.023112942445724274
0.005325630843128663 -0.01168932333780397 -0.026048303135777853
0.005016871435172548 -0.013926751705364957 -0.029021496235276136
0.004834968294868498 -0.01617629124300705 -0.03189345368827557
0.004732241848104854 -0.018448771650430115 -0.03465659245740979
0.00464908530328423 -0.02066010656194966 -0.037369790449791725
0.004547585503985086 -0.022892498948018973 -0.03997548852584673
0.004411660012619469 -0.02515613205726799 -0.04246655629812068
0.004242349868979272 -0.027372886739873398 -0.044897693384198384
0.00405227310746894 -0.029502714385477812 -0.04729694212294693
0.003859297849485217 -0.03156573213710456 -0.0496502163391741
0.0036804214720396232 -0.033601262448756594 -0.05192998215416617
0.003527506244425096 -0.03563127226463364 -0.05412085814800302
0.003405829147614405 -0.037642820184675546 -0.056231905986561775
0.003315379723667389 -0.039598186611575374 -0.05828953721621499
0.003253134023982613 -0.041461235655615596 -0.06031905445934278
0.003214621311891553 -0.04321703637332983 -0.0623309124751129
0.0031948391851961662 -0.044873331435980296 -0.06431968978674167
0.0031888698585714084 -0.04644851703492891 -0.06627250524236311
0.0031922930777549615 -0.047960421356800696 -0.06817687541130978
0.003201436081938149 -0.049421785908997956 -0.07002387859405042
0.0032135028026517493 -0.05083979219121399 -0.07180848625036414
0.003226618152360912 -0.05221651496658878 -0.07352924561546033
0.0032398057236901635 -0.05354960517368274 -0.07518780151986669
0.003252904392775423 -0.0548331719752992 -0.07678827877219473
0.003266372004343082 -0.05605932117893378 -0.07833620494554404
0.0032809500730880004 -0.05722061611343038 -0.07983678725311735
0.0032973286136308236 -0.05831239029971404 -0.08129329319873985
0.0033159342695244357 -0.059333967547700095 -0.08270619625580605
0.0033368336138182735 -0.06028890237937144 -0.08407300752122882
0.0033597203855484335 -0.06118453301043821 -0.0853885887210509
0.0033839603409402744 -0.06203108773558636 -0.08664577792623017
0.003408672097906746 -0.06284019188653313 -0.08783643499186403
0.0034328265552422406 -0.06362160580904025 -0.08895372565027455
0.0034553512046890385 -0.0643790206789166 -0.08999506531233553
0.003475228953835527 -0.0651079732620573 -0.090963579168212
0.0034915839677176984 -0.06579664897743744 -0.09186753987659838
0.0035037495424018335 -0.06642818365047257 -0.0927187558596644
0.0035113151685979642 -0.06698157729428368 -0.09353193146652501
0.003514151750190315 -0.06743077413857956 -0.09432531114395203
0.003512415433327221 -0.06774659292120977 -0.09511932783167765
0.0035065316976985676 -0.06790306171260059 -0.09593216727057122
0.0034971622838568268 -0.06788489022907386 -0.09677453583252557
0.003485158199815951 -0.06769332150762193 -0.09764556313366837
0.0034715024876191118 -0.06734891148253164 -0.09853085575385706
0.003457246657122113 -0.06689079619459533 -0.09940301034231312

CELLS 100 350
4 0 51 52 1
4 1 52 53 2
4 2 53 54 3
4 3 54 55 4
4 4 55 56 5
4 5 56 57 6
4 6 57 58 7
4 7 58 59 8
4 8 59 60 9
4 9 60 61 10
4 10 61 62 11
4 11 62 63 12
4 12 63 64 13
4 13 64 65 14
4 14 65 66 15
4 15 66 67 16
4 16 67 68 17
4 17 68 69 18
4 18 69 70 19
4 19 70 71 20
4 20 71 72 21
4 21 72 73 22
4 22 73 74 23
4 23 74 75 24
4 24 75 76 25
4 25 76 77 26
4 26 77 78 27
4 27 78 79 28
4 28 79 80 29
4 29 80 81 30
4 30 81 82 31
4 31 82 83 32
4 32 83 84 33
4 33 84 85 34
4 34 85 86 35
4 35 86 87 36
4 36 87 88 37
4 37 88 89 38
4 38 89 90 39
4 39 90 91 40
4 40 91 92 41
4 41 92 93 42
4 42 93 94 43
4 43 94 95 44
4 44 95 96 45
4 45 96 97 46
4 46 97 98 47
4 47 98 99 48
4 48 99 100 49
4 49 100 101 50
1 102
1 103
1 104
1 105
1 106
1 107
1 108
1 109
1 110
1 111
1 112
1 113
1 114
1 115
1 116
1 117
1 118
1 119
1 120
1 121
1 122
1 123
1 124
1 125
1 126
1 127
1 128
1 129
1 130
1 131
1 132
1 133
1 134
1 135
1 136
1 137
1 138
1 139
1 140
1 141
1 142
1 143
1 144
1 145
1 146
1 147
1 148
1 149
1 150
1 151

CELL_TYPES 100
9
9
9
9
9
9
9
9
9
9
9
9
9
9
9
9
9
9
9
9
9
9
9
9
9
9
9
9
9
9
9
9
9
9
9
9
9
9
9
9
9
9
9
9
9
9
9
9
9
9
1
1
1
1
1
1
1
1
1
1
1
1
1
1
1
1
1
1
1
1
1
1
1
1
1
1
1
1
1
1
1
1
1
1
1
1
1
1
1
1
1
1
1
1
1
1
1
1
1
1

CELL_DATA 100

VECTORS S float
-4.0485856389999997e-23 -1.46721951849e-21 -2.31066501461e-21
-6.5842299479569895e-18 3.96563326600878e-18 2.15021762239377e-18
1.5880677334297e-19 5.177949410275e-19 9.0424339382714e-19
2.1939486780951e-19 4.67907982648486e-18 7.64505663827694e-18
-1.8489067042865998e-19 -9.198271085504709e-18 -1.520685616220914e-17
-9.513594560061e-20 -1.003907298200846e-17 -1.689959284411819e-17
7.755519275721999e-20 2.860242979085788e-17 4.9060093474746645e-17
3.5119908284779996e-20 -1.548329991947971e-17 -2.706123037506984e-17
3.8263474785268997e-19 -6.018567456001151e-17 -1.0712685909146363e-16
1.1388289327140299e-18 -1.1581292257095907e-16 -2.0968031055018646e-16
-3.6214156610536e-19 2.814621027893716e-17 5.176082403898754e-17
4.5695581746124e-19 -3.0119193479592546e-17 -5.61098121527286e-17
-1.02235211712775e-18 5.925367657398815e-17 1.1171818731673534e-16
-5.2253494633588e-19 2.758373010013174e-17 5.254886683532e-17
-2.05473605146229e-18 1.0318479595394629e-16 1.9836477254704114e-16
3.7498951793804e-19 -1.82707373897821e-17 -3.5404035428627136e-17
-1.9165991556945998e-19 9.20315788756612e-18 1.795842903064147e-17
-5.0453054610147e-19 2.41712717817923e-17 4.754321900157854e-17
-2.7954259892569e-19 1.3496545463298999e-17 2.665515515551202e-17
1.9128640415644697e-18 -8.954822855012193e-17 -1.775141673732643e-16
-9.411187803206399e-19 4.468874772350174e-17 8.890605029295931e-17
1.26700285859968e-18 -6.195721449483003e-17 -1.236668858438598e-16
1.61399166182395e-18 -7.986242861308063e-17 -1.598568167220917e-16
3.1106828381206e-19 -1.557635969140697e-17 -3.125067764828087e-17
2.6549853023607997e-19 -1.359723125222266e-17 -2.732711874130349e-17
5.1377770541734e-19 -2.709739684602255e-17 -5.4516092524373944e-17
-6.495171316575e-20 3.58248575671964e-18 7.20974819683779e-18
-3.8111161064346e-19 2.2664272412999128e-17 4.561944832193561e-17
-8.231395264935999e-20 5.3068764493623596e-18 1.0659666127231849e-17
-5.1569404652781e-19 3.649964349523522e-17 7.312022836800511e-17
6.8673343332484e-19 -5.319916926540341e-17 -1.0623384947373839e-16
8.145930468552999e-20 -7.048730017002819e-18 -1.4024388536681318e-17
-3.905553562829e-20 3.80382069236269e-18 7.535293760106379e-18
2.287329755964e-20 -2.43617513900247e-18 -4.8056210657615395e-18
4.16217566646e-21 -4.8512172284593e-19 -9.5225144211431e-19
-1.5497637681309998e-20 1.94967399624732e-18 3.81061900331956e-18
4.8157152327769996e-20 -6.40887007656569e-18 -1.247335923682586e-17
1.0095720830368999e-19 -1.411331221611703e-17 -2.735643338507922e-17
2.790316637576e-20 -4.12799812476546e-18 -7.97036045908583e-18
6.703771410889999e-20 -1.026973543815334e-17 -1.975597019138998e-17
-1.3514846689249e-19 2.2097849031804778e-17 4.233256463949772e-17
3.467317943206e-20 -5.66475518061007e-18 -1.081791619284368e-17
-1.984572710449e-20 2.6897998767014497e-18 5.1220444427839794e-18
-3.872211401189e-20 4.45031307798721e-18 8.45281599050211e-18
3.3071268201345e-19 -3.01315620664102e-17 -5.710086747893056e-17
-2.4660774527126e-19 1.865860612446666e-17 3.5288247276981236e-17
4.1819251342285996e-19 -2.5371524467960758e-17 -4.7900600501616215e-17
-3.3282145626575997e-19 1.449923279238884e-17 2.733334395132948e-17
-2.7600474154541e-19 8.534662023074699e-18 1.606913798014367e-17
-9.0783467732969e-19 1.403630395585031e-17 2.640287075994197e-17
-4.0485856389999997e-23 -1.46721951849e-21 -2.31066501461e-21
-6.5842299479569895e-18 3.96563326600878e-18 2.15021762239377e-18
1.5880677334297e-19 5.177949410275e-19 9.0424339382714e-19
2.1939486780951e-19 4.67907982648486e-18 7.64505663827694e-18
-1.8489067042865998e-19 -9.198271085504709e-18 -1.520685616220914e-17
-9.513594560061e-20 -1.003907298200846e-17 -1.689959284411819e-17
7.755519275721999e-20 2.860242979085788e-17 4.9060093474746645e-17
3.5119908284779996e-20 -1.548329991947971e-17 -2.706123037506984e-17
3.8263474785268997e-19 -6.018567456001151e-17 -1.0712685909146363e-16
1.1388289327140299e-18 -1.1581292257095907e-16 -2.0968031055018646e-16
-3.6214156610536e-19 2.814621027893716e-17 5.176082403898754e-17
4.5695581746124e-19 -3.0119193479592546e-17 -5.61098121527286e-17
-1.02235211712775e-18 5.925367657398815e-17 1.1171818731673534e-16
-5.2253494633588e-19 2.758373010013174e-17 5.254886683532e-17
-2.05473605146229e-18 1.0318479595394629e-16 1.9836477254704114e-16
3.7498951793804e-19 -1.82707373897821e-17 -3.5404035428627136e-17
-1.9165991556945998e-19 9.20315788756612e-18 1.795842903064147e-17
-5.0453054610147e-19 2.41712717817923e-17 4.754321900157854e-17
-2.7954259892569e-19 1.3496545463298999e-17 2.665515515551202e-17
1.9128640415644697e-18 -8.954822855012193e-17 -1.775141673732643e-16
-9.411187803206399e-19 4.468874772350174e-17 8.890605029295931e-17
1.26700285859968e-18 -6.195721449483003e-17 -1.236668858438598e-16
1.61399166182395e-18 -7.986242861308063e-17 -1.598568167220917e-16
3.1106828381206e-19 -1.557635969140697e-17 -3.125067764828087e-17
2.6549853023607997e-19 -1.359723125222266e-17 -2.732711874130349e-17
5.1377770541734e-19 -2.709739684602255e-17 -5.4516092524373944e-17
-6.495171316575e-20 3.58248575671964e-18 7.20974819683779e-18
-3.8111161064346e-19 2.2664272412999128e-17 4.561944832193561e-17
-8.231395264935999e-20 5.3068764493623596e-18 1.0659666127231849e-17
-5.1569404652781e-19 3.649964349523522e-17 7.312022836800511e-17
6.8673343332484e-19 -5.319916926540341e-17 -1.0623384947373839e-16
8.145930468552999e-20 -7.048730017002819e-18 -1.4024388536681318e-17
-3.905553562829e-20 3.80382069236269e-18 7.535293760106379e-18
2.287329755964e-20 -2.43617513900247e-18 -4.8056210657615395e-18
4.16217566646e-21 -4.8512172284593e-19 -9.5225144211431e-19
-1.5497637681309998e-20 1.94967399624732e-18 3.81061900331956e-18
4.8157152327769996e-20 -6.40887007656569e-18 -1.247335923682586e-17
1.0095720830368999e-19 -1.411331221611703e-17 -2.735643338507922e-17
2.790316637576e-20 -4.12799812476546e-18 -7.97036045908583e-18
6.703771410889999e-20 -1.026973543815334e-17 -1.975597019138998e-17
-1.3514846689249e-19 2.2097849031804778e-17 4.233256463949772e-17
3.467317943206e-20 -5.66475518061007e-18 -1.081791619284368e-17
-1.984572710449e-20 2.6897998767014497e-18 5.1220444427839794e-18
-3.872211401189e-20 4.45031307798721e-18 8.45281599050211e-18
3.3071268201345e-19 -3.01315620664102e-17 -5.710086747893056e-17
-2.4660774527126e-19 1.865860612446666e-17 3.5288247276981236e-17
4.1819251342285996e-19 -2.5371524467960758e-17 -4.7900600501616215e-17
-3.3282145626575997e-19 1.449923279238884e-17 2.733334395132948e-17
-2.7600474154541e-19 8.534662023074699e-18 1.606913798014367e-17
-9.0783467732969e-19 1.403630395585031e-17 2.640287075994197e-17

SCALARS Gamma float
LOOKUP_TABLE default
0.00022739983740132326
-0.00016263043650059444
0.002621243093834727
0.023295084950540803
0.0570461803670984
0.09937400649674556
0.14711545176565363
0.1912940178543484
0.23458639227843092
0.2669796813825645
0.2876271158398277
0.29098885940094205
0.28417065079791115
0.2612361600873526
0.24975790700355086
0.24119631716456372
0.23038649551842813
0.22857569735400493
0.22367219256637616
0.2139244298262534
0.21188660789556124
0.20828942139000006
0.19966228415703524
0.194715357255638
0.19066138392099333
0.18868536140493009
0.18846663780195952
0.19224118649917546
0.19388537391001084
0.1964448357723313
0.19578367903440907
0.20231610811421455
0.2014274560141512
0.19990283520387941
0.19849632779227444
0.1961737367878664
0.19339121687339736
0.19020158019750158
0.186788075969042
0.180478442333332
0.17742566211094637
0.16758723883832022
0.15288041055003718
0.13571054705960434
0.12480440553877711
0.10694270646919612
0.08658539008238186
0.06317468952231224
0.045080160780548766
0.02321206633393149
0.00022739983740132326
-0.00016263043650059444
0.002621243093834727
0.023295084950540803
0.0570461803670984
0.09937400649674556
0.14711545176565363
0.1912940178543484
0.23458639227843092
0.2669796813825645
0.2876271158398277
0.29098885940094205
0.28417065079791115
0.2612361600873526
0.24975790700355086
0.24119631716456372
0.23038649551842813
0.22857569735400493
0.22367219256637616
0.2139244298262534
0.21188660789556124
0.20828942139000006
0.19966228415703524
0.194715357255638
0.19066138392099333
0.18868536140493009
0.18846663780195952
0.19224118649917546
0.19388537391001084
0.1964448357723313
0.19578367903440907
0.20231610811421455
0.2014274560141512
0.19990283520387941
0.19849632779227444
0.1961737367878664
0.19339121687339736
0.19020158019750158
0.186788075969042
0.180478442333332
0.17742566211094637
0.16758723883832022
0.15288041055003718
0.13571054705960434
0.12480440553877711
0.10694270646919612
0.08658539008238186
0.06317468952231224
0.045080160780548766
0.02321206633393149

VECTORS Ftot float
-0.0011253505353211095 0.00034215976812312606 -0.00019754603423174764
0.01768406951790768 0.04274127668749265 -0.02467668760103227
0.0024350387081005973 0.09055742184732216 -0.052283351880670174
-0.23744323417815708 0.19642902984364624 -0.1134083532568867
-0.7641177463736627 0.3375109759172105 -0.1948620528002557
-1.5839740836149108 0.5342042301438626 -0.3084229560757973
-2.6988728500028976 0.7540814387438186 -0.435369121649646
-3.944274333655884 0.9858644410771066 -0.56918910044035
-5.353659848673376 1.2310331721731904 -0.7107373333355537
-6.662400411213722 1.4462916281866514 -0.835016860860269
-7.773905973167486 1.6199030528713605 -0.9352514636363809
-8.453222990416144 1.6972988134567746 -0.9799359268445058
-8.816643238231789 1.7179289840666516 -0.991846761399546
-8.609959346448715 1.6328118795665914 -0.9427043782037946
-8.709698593378969 1.5779808656491046 -0.9110476775585934
-8.863401048553847 1.5317977454219887 -0.8843838406634511
-8.889387753006208 1.4622539861762096 -0.8442327325424416
-9.235701462389914 1.421583743159012 -0.8207517567884551
-9.4266486508812 1.3921852425179602 -0.8037785245295723
-9.370366030380236 1.3852208192025501 -0.7997576128536699
-9.630776355894744 1.3647723095406872 -0.7879516602958666
-9.803197833514256 1.3154858463483765 -0.7594961075043812
-9.706227655078596 1.2602233607693842 -0.7275902965792622
-9.757442777281609 1.230718182686737 -0.7105554740707579
-9.831758339504557 1.1973449044120519 -0.691287402875128
-9.995649630907652 1.1731721029107856 -0.6773312294213045
-10.241539673496305 1.1467789707539766 -0.6620931474658134
-10.702782061776723 1.1101829100012301 -0.6409644019389352
-11.04200398446231 1.0724807627328972 -0.6191970570645362
-11.429251908499687 1.0310788245825058 -0.5952936369284353
-11.620793330100447 0.9809974739200198 -0.566379155642069
-12.236785849919343 0.9509141969455361 -0.5490105675827446
-12.399718000944873 0.8858469372963627 -0.5114439677088629
-12.509803443272581 0.8456899882922521 -0.4882593423915054
-12.613221622083284 0.8119039665757696 -0.4687529736586476
-12.646375635546402 0.782741254247072 -0.45191587384537435
-12.63578715922708 0.7677045387487884 -0.44323442210471253
-12.58466021145831 0.7558379461491631 -0.43638324167295517
-12.504949854388455 0.7366135959852163 -0.42528405793080476
-12.215302202160913 0.7206097105412816 -0.4160442103616691
-12.132374421333143 0.6998565058216556 -0.4040623420302456
-11.567249404602453 0.6903492060540986 -0.39857329995018004
-10.642583844660237 0.7898237352636552 -0.4560049461668291
-9.521668210547354 0.857594366080207 -0.4951323381119162
-8.819136301619633 1.028551261899614 -0.5938343479330741
-7.605977779917295 1.0936520465118122 -0.6314203034533827
-6.194004089104576 1.1341503547790994 -0.6548020126332256
-4.543077981930572 1.179727396123271 -0.68111592972215
-3.2573977306605864 1.210266119262162 -0.6987474697470962
-1.6861953358701023 1.2678365556133222 -0.7319857766718029
-0.0011253505353211095 0.00034215976812312606 -0.00019754603423174764
0.01768406951790768 0.04274127668749265 -0.02467668760103227
0.0024350387081005973 0.09055742184732216 -0.052283351880670174
-0.23744323417815708 0.19642902984364624 -0.1134083532568867
-0.7641177463736627 0.3375109759172105 -0.1948620528002557
-1.5839740836149108 0.5342042301438626 -0.3084229560757973
-2.6988728500028976 0.7540814387438186 -0.435369121649646
-3.944274333655884 0.9858644410771066 -0.56918910044035
-5.353659848673376 1.2310331721731904 -0.7107373333355537
-6.662400411213722 1.4462916281866514 -0.835016860860269
-7.773905973167486 1.6199030528713605 -0.9352514636363809
-8.453222990416144 1.6972988134567746 -0.9799359268445058
-8.816643238231789 1.7179289840666516 -0.991846761399546
-8.609959346448715 1.6328118795665914 -0.9427043782037946
-8.709698593378969 1.5779808656491046 -0.9110476775585934
-8.863401048553847 1.5317977454219887 -0.8843838406634511
-8.889387753006208 1.4622539861762096 -0.8442327325424416
-9.235701462389914 1.421583743159012 -0.8207517567884551
-9.4266486508812 1.3921852425179602 -0.8037785245295723
-9.370366030380236 1.3852208192025501 -0.7997576128536699
-9.630776355894744 1.3647723095406872 -0.7879516602958666
-9.803197833514256 1.3154858463483765 -0.7594961075043812
-9.706227655078596 1.2602233607693842 -0.7275902965792622
-9.757442777281609 1.230718182686737 -0.7105554740707579
-9.831758339504557 1.1973449044120519 -0.691287402875128
-9.995649630907652 1.1731721029107856 -0.6773312294213045
-10.241539673496305 1.1467789707539766 -0.6620931474658134
-10.702782061776723 1.1101829100012301 -0.6409644019389352
-11.04200398446231 1.0724807627328972 -0.6191970570645362
-11.429251908499687 1.0310788245825058 -0.5952936369284353
-11.620793330100447 0.9809974739200198 -0.566379155642069
-12.236785849919343 0.9509141969455361 -0.5490105675827446
-12.399718000944873 0.8858469372963627 -0.5114439677088629
-12.509803443272581 0.8456899882922521 -0.4882593423915054
-12.613221622083284 0.8119039665757696 -0.4687529736586476
-12.646375635546402 0.782741254247072 -0.45191587384537435
-12.63578715922708 0.7677045387487884 -0.44323442210471253
-12.58466021145831 0.7558379461491631 -0.43638324167295517
-12.504949854388455 0.7366135959852163 -0.42528405793080476
-12.215302202160913 0.7206097105412816 -0.4160442103616691
-12.132374421333143 0.6998565058216556 -0.4040623420302456
-11.567249404602453 0.6903492060540986 -0.39857329995018004
-10.642583844660237 0.7898237352636552 -0.4560049461668291
-9.521668210547354 0.857594366080207 -0.4951323381119162
-8.819136301619633 1.028551261899614 -0.5938343479330741
-7.605977779917295 1.0936520465118122 -0.6314203034533827
-6.194004089104576 1.1341503547790994 -0.6548020126332256
-4.543077981930572 1.179727396123271 -0.68111592972215
-3.2573977306605864 1.210266119262162 -0.6987474697470962
-1.6861953358701023 1.2678365556133222 -0.7319857766718029

VECTORS D float
-4.215453833732459e-5 -7.862820185356315e-5 5.066571498187923e-5
0.0164827667685883 0.04187921598077494 -0.02676533057185548
0.027509216975157978 0.08236452714599785 -0.05199549787402121
0.04009303423298988 0.13154912465850058 -0.08166388960431196
0.04677849941220874 0.1627358267241527 -0.09900384021464537
0.05438761129117617 0.19840692752442476 -0.11816828137832629
0.055791337204059745 0.21248814958947412 -0.12397049938488103
0.05733899731551208 0.2272142966565896 -0.12992806727811892
0.058423750773553544 0.24078764657363308 -0.13506987976985235
0.060973835172405275 0.2619604654473052 -0.14435770461444203
0.06585166470267592 0.29602961585306026 -0.1605125951114913
0.06814103742117471 0.3210384751958882 -0.17177534793960586
0.07172056599685445 0.3570589947521493 -0.18872249028364216
0.07114173480472935 0.3745565999936983 -0.19590325612790283
0.06713775906297846 0.3739447595814976 -0.19382203224811814
0.06327626695153457 0.3727768140163812 -0.1917063762613869
0.05814121420578066 0.36202102904210126 -0.18490444476084672
0.05273651230315488 0.3506923788093471 -0.17773457069391174
0.05059604246825686 0.3543143415064879 -0.17887256110187305
0.0549474408940811 0.4043351501961937 -0.20337751060083448
0.05235869706218503 0.40437913602384384 -0.20270748033360797
0.047363873717531486 0.3839304872448927 -0.19186424259037038
0.044966369507438646 0.3830738452579462 -0.19092480946910834
0.04396965800860919 0.3947700747630696 -0.19632864230687058
0.04233523108270443 0.40227639777124585 -0.19975048660826006
0.04100600860855697 0.41469837974996865 -0.20574069187848568
0.03899406245683591 0.4225771108188232 -0.20962503934980528
0.03568342444563014 0.4285469382281805 -0.212608997679017
0.03276782609970147 0.42984278161703726 -0.2137426499302132
0.02965087989180148 0.42856682531843 -0.2137198680113925
0.02685833799555947 0.43181651755445677 -0.21606894228177073
0.024222335642600977 0.4376271996129862 -0.21981299473318233
0.020936901734481025 0.43233564045059664 -0.21813476761614878
0.01895269167910412 0.448535852978274 -0.22729182523414662
0.01706454045947035 0.47053998374964817 -0.2396406367868428
0.015261219402389496 0.49291276877039397 -0.2521329720982494
0.013729813892806942 0.5266392548988189 -0.2705366941700899
0.012093080585803261 0.5598832282218181 -0.28880175312310413
0.010201068525422194 0.5813386644614602 -0.3010504088184617
0.008398734448150922 0.6037009777669057 -0.31379305766332666
0.0062579668272884905 0.6193692321677322 -0.3232944223746704
0.004750397023788372 0.6379664573230848 -0.3340531594429074
0.00392172321439805 0.7639639076222099 -0.4011742221356097
0.002676266178952196 0.8521594429396248 -0.44864015578021954
0.0014945199296390011 1.0397198556035503 -0.5486412113732376
-1.1322214060416017e-5 1.1156765225172602 -0.5899123134315869
-0.0014381638811875018 1.162495511897756 -0.6157518787761643
-0.0027551019444395073 1.2106779647512431 -0.6422492116531267
-0.0039128387027901786 1.2414160555684202 -0.6594097604627774
-0.005037919886646302 1.2968915453514542 -0.6896271883557923
-4.215453833732459e-5 -7.862820185356315e-5 5.066571498187923e-5
0.0164827667685883 0.04187921598077494 -0.02676533057185548
0.027509216975157978 0.08236452714599785 -0.05199549787402121
0.04009303423298988 0.13154912465850058 -0.08166388960431196
0.04677849941220874 0.1627358267241527 -0.09900384021464537
0.05438761129117617 0.19840692752442476 -0.11816828137832629
0.055791337204059745 0.21248814958947412 -0.12397049938488103
0.05733899731551208 0.2272142966565896 -0.12992806727811892
0.058423750773553544 0.24078764657363308 -0.13506987976985235
0.060973835172405275 0.2619604654473052 -0.14435770461444203
0.06585166470267592 0.29602961585306026 -0.1605125951114913
0.06814103742117471 0.3210384751958882 -0.17177534793960586
0.07172056599685445 0.3570589947521493 -0.18872249028364216
0.07114173480472935 0.3745565999936983 -0.19590325612790283
0.06713775906297846 0.3739447595814976 -0.19382203224811814
0.06327626695153457 0.3727768140163812 -0.1917063762613869
0.05814121420578066 0.36202102904210126 -0.18490444476084672
0.05273651230315488 0.3506923788093471 -0.17773457069391174
0.05059604246825686 0.3543143415064879 -0.17887256110187305
0.0549474408940811 0.4043351501961937 -0.20337751060083448
0.05235869706218503 0.40437913602384384 -0.20270748033360797
0.047363873717531486 0.3839304872448927 -0.19186424259037038