# vtk DataFile Version 4.0
[MyVLM domain - lattices] 
ASCII
DATASET UNSTRUCTURED_GRID
POINTS 152 float
0.0018916144324157278 0.0022867875584228797 -0.009861066134098732
0.0010688609733395774 0.005609090035225642 -0.012524696102366697
0.00045780959861706216 0.008862808952490867 -0.015155618324214089
-0.00013255382275044122 0.012105861827097705 -0.01762962828387485
-0.0007201482309470062 0.015313931445431936 -0.019998874414232183
-0.0011946371146526612 0.018550234154347346 -0.022127788821968798
-0.0014108622120167862 0.021943170628302498 -0.02374101537211024
-0.0013224843579428829 0.02538569806605 -0.025068108092722252
-0.0010167791708201568 0.028721572953007406 -0.026444132282111617
-0.0006138083932142036 0.03205529995403879 -0.02764497696325184
-0.00020084691410191335 0.035338624089687576 -0.028774125273536524
0.0001698744379422134 0.038510922299204796 -0.02996158378628435
0.0004739400232210948 0.04160332682938618 -0.031140589182790848
0.0007082255455298663 0.0446504100077276 -0.03223700086748301
0.0008836440760600275 0.04764720338511725 -0.033261473713865286
0.001017516815515788 0.05056867068296362 -0.034267698194641
0.0011275777072549662 0.0533918810791354 -0.035304849616563674
0.0012277625198140337 0.05611110433313094 -0.03638521652004533
0.00132638558954348 0.05874063562956299 -0.03747814278275394
0.0014271324949937316 0.061301531660628815 -0.03853847218254945
0.0015306083418583354 0.06380769253802383 -0.03953639583370518
0.0016355657532635378 0.06625943377266978 -0.04047123712086593
0.0017398364473795213 0.06864824434952506 -0.041361247974689
0.0018410131526058282 0.07096427940780635 -0.04222754076725566
0.001936923789896676 0.07320030341272518 -0.043085632152993394
0.0020259353317291845 0.07535227494909473 -0.043944188974738944
0.0021071205190511294 0.07741912520816273 -0.044805503300258315
0.002180316672546981 0.07940239725987329 -0.045666266005377515
0.0022461021518325993 0.08130579760834972 -0.04651852846635316
0.0023056987632523672 0.08313463937492623 -0.04735089665771461
0.0023607022647827588 0.08489472597423355 -0.04815092511662359
0.0024126938092907785 0.08659085220452513 -0.04890833136504319
0.0024629658139780817 0.08822585070552139 -0.04961704078748965
0.0025123806343549317 0.08980023036474463 -0.0502759620711496
0.0025613283706516186 0.09131224375140604 -0.05088884259344285
0.0026097549007438213 0.09275824495784259 -0.05146350102858417
0.0026572361369983943 0.09413322775958138 -0.0520106732596014
0.002703078927872171 0.09543181151340668 -0.0525418981131075
0.0027464329900004744 0.09665061365216669 -0.05306442952776852
0.0027864017842759935 0.09779021612121779 -0.05357701951774038
0.0028221433614242725 0.09885535907541204 -0.054069502788138525
0.0028529549202113143 0.09985393381768369 -0.05452495638520867
0.002878337166053322 0.1007956359521667 -0.05492258801878694
0.0028980365508205295 0.10169239540706512 -0.055236813875278644
0.0029120651374179955 0.10255892566412345 -0.0554360807912579
0.002920699186668212 0.10341021569415065 -0.055488244815093485
0.0029244586304951574 0.10425753634669294 -0.05536913553193364
0.002924070395798875 0.10510475955388913 -0.055070449556510824
0.0029204190990956736 0.10594603700809234 -0.05460472862504721
0.0029144889643634465 0.10676528844300753 -0.05400645697989592
0.002907300946956263 0.1075375028454046 -0.05332927091201801
0.006212993241944028 0.008455036031203029 0.0033667854032006918
0.0072288922610571306 0.01349414590655408 0.004384860782301516
0.007974780507892725 0.017826575219590565 0.004067240469411172
0.008270023946844132 0.021690205910895672 0.002924063932374546
0.008140225139500825 0.02519552114452816 0.001192263081115449
0.007751519283975376 0.028505021285096247 -0.0007796789278784724
0.007318662739924205 0.03181691199187492 -0.00256670868660789
0.0069707766105224795 0.03507066391259688 -0.004298631809903927
0.006702226685381192 0.0381413229698701 -0.0062434131814797286
0.006460614097576536 0.04115619012066678 -0.008128055018120896
0.006208498480286784 0.04408489978018075 -0.010017676526589562
0.005928720355726676 0.04688101610424194 -0.012011859696068175
0.00562110152420414 0.04958679518625951 -0.014019986041807079
0.005297776270156929 0.0522455550333314 -0.015949159797802037
0.004977662142563614 0.0548592081976243 -0.017795279482695804
0.004680078492205027 0.05740816671803612 -0.01960035161463046
0.0044193472589770496 0.059873908109913054 -0.021404097790131096
0.0042022226504668725 0.062254286620758714 -0.023211119590275938
0.004028605706719037 0.06456639768376335 -0.024984755740279398
0.003894567528214928 0.06683325619027218 -0.02667565064637688
0.003794542923454683 0.06906991041375886 -0.02825153318196239
0.0037223892098821663 0.0712771153979053 -0.029710784150634818
0.0036720478837599236 0.07344619563609785 -0.031072008236366005
0.0036379885391020494 0.07556663594524025 -0.03235775532207633
0.003615480687410345 0.07763011711445417 -0.03358586601306759
0.003600729157216099 0.07963118768640363 -0.034768030997323604
0.0035909263662617956 0.0815671222835744 -0.03591009486578467
0.003584242976167935 0.08343763375590807 -0.03701267341373826
0.00357976601221264 0.08524449121308823 -0.03807197277322476
0.003577378730160166 0.08699102356456186 -0.03908085407489742
0.0035774796054096774 0.08868105714809718 -0.04003111171093202
0.003580588564800478 0.0903174641937364 -0.04091658616412579
0.0035870678637920984 0.0919012500921462 -0.04173512136723623
0.0035969747054953923 0.09343122590649583 -0.04248926700352487
0.0036100119296844893 0.09490410314192645 -0.04318607527297463
0.0036255480079795204 0.09631487222146137 -0.0438362892480808
0.0036426825552804717 0.09765735477008428 -0.04445315849682337
0.0036603380175139954 0.09892519742499238 -0.045050307849701425
0.003677362157174432 0.10011424642300314 -0.045636645080606136
0.0036926294639041822 0.10122451078134505 -0.04621215085202851
0.0037051326977571345 0.10226034792681436 -0.04676748063204846
0.003714058455611533 0.10322944434123388 -0.04728615070720249
0.003718842962038476 0.10414145282047572 -0.04774746058994068
0.003719206248598144 0.10500840365137874 -0.04812561124688136
0.003715164522496519 0.10584523270539192 -0.0483885725983384
0.0037070218583473346 0.10666725061213685 -0.04850351089313087
0.003695343396461056 0.10748612541617074 -0.04844540392895702
0.003680913018392471 0.10830617771410792 -0.04820498615647671
0.0036646790161518838 0.10912203554203127 -0.04779377778948697
0.003647691596346039 0.10991809971858622 -0.04724523138035689
0.0036310361855396924 0.11066982350459441 -0.04661198758113046
0.005410766489344848 0.009217927925864981 0.00010864704000514936
0.005892211109850776 0.013554257795768807 -0.0002905013339303389
0.006132458642509649 0.01743987677138091 -0.001476416675341473
0.006047255650667177 0.021009621804850144 -0.0031599402072046293
0.005720055990603616 0.024370724111081564 -0.005111113847061258
0.005325630843128663 0.02768240057669542 -0.006988495879692264
0.005016871435172548 0.030998949550970992 -0.008675643119295993
0.004834968294868498 0.03421790395830729 -0.010392296918623103
0.004732241848104854 0.037333676522332104 -0.012150439230520666
0.00464908530328423 0.04038964921828362 -0.013857037108864968
0.004547585503985086 0.04334341175527005 -0.015603039715974263
0.004411660012619469 0.04618971037501192 -0.01739971377283762
0.004242349868979272 0.04896884843698581 -0.01916062844613765
0.00405227310746894 0.051701487885714 -0.02084147405285523
0.003859297849485217 0.05437724985188276 -0.022464508150060635
0.0036804214720396232 0.05697584703074332 -0.024073237003186167
0.003527506244425096 0.059485946200535204 -0.025691964784728766
0.003405829147614405 0.06191422410953252 -0.02730637316180816
0.003315379723667389 0.0642801411140373 -0.028874729265659028
0.003253134023982613 0.06660234050134323 -0.030357052437659054
0.003214621311891553 0.06888852546821077 -0.03173682311904535
0.0031948391851961662 0.07113470140302554 -0.03302260778206968
0.0031888698585714084 0.07333137731266823 -0.034234759927158964
0.0031922930777549615 0.07546935524995185 -0.03539300461571011
0.003201436081938149 0.07754206159554917 -0.03651143901986324
0.0032135028026517493 0.07954579125839895 -0.03759800873304026
0.003226618152360912 0.08147947382331043 -0.038655009268025585
0.0032398057236901635 0.0833443212219015 -0.03967984162907747
0.003252904392775423 0.08514337266452827 -0.04066598820855429
0.003266372004343082 0.08688070093589212 -0.041604714891478316
0.0032809500730880004 0.08856014277553244 -0.04248779376335503
0.0032973286136308236 0.09018410572096179 -0.04331006184332736
0.0033159342695244357 0.09175293863327402 -0.04407077099636532
0.0033368336138182735 0.0932648076576772 -0.04477385393676137
0.0033597203855484335 0.09471592684992651 -0.045427429648149165
0.0033839603409402744 0.09610101921150763 -0.04604281469036226
0.003408672097906746 0.09741408698227726 -0.046632871301535414
0.0034328265552422406 0.09865009458869499 -0.047208398303974844
0.0034553512046890385 0.09980713767330364 -0.04777347960542661
0.003475228953835527 0.1008875189151385 -0.048323177094763727
0.0034915839677176984 0.10189733371215506 -0.048844419148887507
0.0035037495424018335 0.10284528265687241 -0.049318547286928145
0.0035113151685979642 0.10374220009684942 -0.04972232717556647
0.003514151750190315 0.10460152876768757 -0.05002693077527448
0.003512415433327221 0.10543832391385756 -0.0502000720100949
0.0035065316976985676 0.1062659850157208 -0.05021301560166135
0.0034971622838568268 0.10709240066142726 -0.050048844418093215
0.003485158199815951 0.10791692954129989 -0.049708933752431135
0.0034715024876191118 0.10872896640411905 -0.049216026639309345
0.003457246657122113 0.10950832011974428 -0.048613423097047

CELLS 100 350
4 0 51 52 1
4 1 52 53 2
4 2 53 54 3
4 3 54 55 4
4 4 55 56 5
4 5 56 57 6
4 6 57 58 7
4 7 58 59 8
4 8 59 60 9
4 9 60 61 10
4 10 61 62 11
4 11 62 63 12
4 12 63 64 13
4 13 64 65 14
4 14 65 66 15
4 15 66 67 16
4 16 67 68 17
4 17 68 69 18
4 18 69 70 19
4 19 70 71 20
4 20 71 72 21
4 21 72 73 22
4 22 73 74 23
4 23 74 75 24
4 24 75 76 25
4 25 76 77 26
4 26 77 78 27
4 27 78 79 28
4 28 79 80 29
4 29 80 81 30
4 30 81 82 31
4 31 82 83 32
4 32 83 84 33
4 33 84 85 34
4 34 85 86 35
4 35 86 87 36
4 36 87 88 37
4 37 88 89 38
4 38 89 90 39
4 39 90 91 40
4 40 91 92 41
4 41 92 93 42
4 42 93 94 43
4 43 94 95 44
4 44 95 96 45
4 45 96 97 46
4 46 97 98 47
4 47 98 99 48
4 48 99 100 49
4 49 100 101 50
1 102
1 103
1 104
1 105
1 106
1 107
1 108
1 109
1 110
1 111
1 112
1 113
1 114
1 115
1 116
1 117
1 118
1 119
1 120
1 121
1 122
1 123
1 124
1 125
1 126
1 127
1 128
1 129
1 130
1 131
1 132
1 133
1 134
1 135
1 136
1 137
1 138
1 139
1 140
1 141
1 142
1 143
1 144
1 145
1 146
1 147
1 148
1 149
1 150
1 151

CELL_TYPES 100
9
9
9
9
9
9
9
9
9
9
9
9
9
9
9
9
9
9
9
9
9
9
9
9
9
9
9
9
9
9
9
9
9
9
9
9
9
9
9
9
9
9
9
9
9
9
9
9
9
9
1
1
1
1
1
1
1
1
1
1
1
1
1
1
1
1
1
1
1
1
1
1
1
1
1
1
1
1
1
1
1
1
1
1
1
1
1
1
1
1
1
1
1
1
1
1
1
1
1
1

CELL_DATA 100

VECTORS S float
1.3143122754952159e-17 -8.17766431319186e-18 -5.09094421085273e-18
-1.10243463187182e-18 -4.08526415196638e-18 2.11593939167266e-18
-4.3854579129250294e-18 -1.9334731972072597e-18 2.36746300719709e-18
-2.5502044646158e-19 1.2154115197025129e-17 -4.5821583280731595e-18
8.115724801694999e-20 -1.58289703004458e-17 5.9196580598334594e-18
3.110977383268e-20 -3.0787001602253716e-17 1.128742548598051e-17
2.5946209065179998e-20 1.697199841416783e-17 -6.09442757105016e-18
-1.0016618001954e-19 -2.852705011301553e-17 1.003023178085735e-17
-2.0952279522064998e-19 -3.941158641211115e-17 1.3540784384356779e-17
1.08493303517642e-18 1.6241897822202607e-16 -5.46896268425817e-17
-6.607712828294499e-19 -8.442546556729214e-17 2.7898245416688277e-17
-4.2093995394412996e-19 -4.8161670022684476e-17 1.564526897862753e-17
-8.743288398832e-20 -9.21046583675479e-18 2.9473347862342e-18
-9.003529203005e-19 -8.921332077963666e-17 2.817834989978376e-17
1.1449193663945999e-19 1.109515748214488e-17 -3.46473594805888e-18
-5.4272080176719e-19 -5.195379587764052e-17 1.6050466840863748e-17
9.308989516751499e-19 8.96275205620078e-17 -2.74558955379755e-17
8.2036599422123e-19 8.034233498426245e-17 -2.4428025392854177e-17
-1.0933438803655998e-19 -1.082657884007936e-17 3.2700042878808096e-18
-7.077963266866499e-19 -6.854052157341536e-17 2.058029128744358e-17
-3.7764801862757996e-19 -3.7312303334463075e-17 1.1141287031243879e-17
-2.3295199012681997e-19 -2.383621371758656e-17 7.080444915964499e-18
-4.513733120812399e-19 -4.8226308769205985e-17 1.4304034314298608e-17
-2.0379453271838e-19 -2.225993703384558e-17 6.587296905853339e-18
2.6742167521483e-19 3.011027404639126e-17 -8.89679244545356e-18
-7.954208430272599e-19 -9.273009176389942e-17 2.738054784930774e-17
2.4826738747462e-19 3.03853230911666e-17 -8.97373851748189e-18
-7.3492072223813e-19 -9.590204020627251e-17 2.835739620333004e-17
-3.7639930964248e-19 -5.276110339295385e-17 1.563794092586347e-17
2.1412574440856999e-19 3.257753825773396e-17 -9.68644423890632e-18
1.7026737132269998e-19 2.798008174961141e-17 -8.352212299464509e-18
6.670378088111e-20 1.215753932293968e-17 -3.6463069227161e-18
1.3857479555287e-19 2.7790336395031417e-17 -8.379695174926759e-18
2.7480026626446e-19 5.94712775320118e-17 -1.803268444305969e-17
-7.299794947398e-20 -1.6930611763237058e-17 5.1628046768302494e-18
1.8028005759628998e-19 4.460769893449328e-17 -1.3679823569163679e-17
1.8904515371423998e-19 4.893378080251353e-17 -1.5090331347019218e-17
-3.857780163959e-20 -1.036375716422467e-17 3.2133111757838797e-18
-1.2928094906703e-19 -3.624685504515919e-17 1.129663433756656e-17
-7.777006835762e-20 -2.2302496218760797e-17 6.984802473297269e-18
-5.432895134668999e-20 -1.609586699505176e-17 5.06403048826869e-18
-7.276102456134e-20 -2.1461398628418e-17 6.7806621804897694e-18
2.080324268678e-20 5.02043233576864e-18 -1.59234725727388e-18
-3.7648238364285e-19 -7.462182215635947e-17 2.3750854229595017e-17
4.7555513373059997e-20 7.049473512739189e-18 -2.25073658764012e-18
-2.3127194860413e-19 -2.841240846460772e-17 9.09893005567696e-18
-3.4118772080771997e-19 -3.5732633125018406e-17 1.147059411906245e-17
1.34483254393885e-18 1.1365427068188967e-16 -3.655972790087837e-17
-1.8862336442098e-19 -1.2550991403204019e-17 4.0444477115082994e-18
1.58310430696823e-18 5.675531583724605e-17 -1.8316255015001038e-17
1.3143122754952159e-17 -8.17766431319186e-18 -5.09094421085273e-18
-1.10243463187182e-18 -4.08526415196638e-18 2.11593939167266e-18
-4.3854579129250294e-18 -1.9334731972072597e-18 2.36746300719709e-18
-2.5502044646158e-19 1.2154115197025129e-17 -4.5821583280731595e-18
8.115724801694999e-20 -1.58289703004458e-17 5.9196580598334594e-18
3.110977383268e-20 -3.0787001602253716e-17 1.128742548598051e-17
2.5946209065179998e-20 1.697199841416783e-17 -6.09442757105016e-18
-1.0016618001954e-19 -2.852705011301553e-17 1.003023178085735e-17
-2.0952279522064998e-19 -3.941158641211115e-17 1.3540784384356779e-17
1.08493303517642e-18 1.6241897822202607e-16 -5.46896268425817e-17
-6.607712828294499e-19 -8.442546556729214e-17 2.7898245416688277e-17
-4.2093995394412996e-19 -4.8161670022684476e-17 1.564526897862753e-17
-8.743288398832e-20 -9.21046583675479e-18 2.9473347862342e-18
-9.003529203005e-19 -8.921332077963666e-17 2.817834989978376e-17
1.1449193663945999e-19 1.109515748214488e-17 -3.46473594805888e-18
-5.4272080176719e-19 -5.195379587764052e-17 1.6050466840863748e-17
9.308989516751499e-19 8.96275205620078e-17 -2.74558955379755e-17
8.2036599422123e-19 8.034233498426245e-17 -2.4428025392854177e-17
-1.0933438803655998e-19 -1.082657884007936e-17 3.2700042878808096e-18
-7.077963266866499e-19 -6.854052157341536e-17 2.058029128744358e-17
-3.7764801862757996e-19 -3.7312303334463075e-17 1.1141287031243879e-17
-2.3295199012681997e-19 -2.383621371758656e-17 7.080444915964499e-18
-4.513733120812399e-19 -4.8226308769205985e-17 1.4304034314298608e-17
-2.0379453271838e-19 -2.225993703384558e-17 6.587296905853339e-18
2.6742167521483e-19 3.011027404639126e-17 -8.89679244545356e-18
-7.954208430272599e-19 -9.273009176389942e-17 2.738054784930774e-17
2.4826738747462e-19 3.03853230911666e-17 -8.97373851748189e-18
-7.3492072223813e-19 -9.590204020627251e-17 2.835739620333004e-17
-3.7639930964248e-19 -5.276110339295385e-17 1.563794092586347e-17
2.1412574440856999e-19 3.257753825773396e-17 -9.68644423890632e-18
1.7026737132269998e-19 2.798008174961141e-17 -8.352212299464509e-18
6.670378088111e-20 1.215753932293968e-17 -3.6463069227161e-18
1.3857479555287e-19 2.7790336395031417e-17 -8.379695174926759e-18
2.7480026626446e-19 5.94712775320118e-17 -1.803268444305969e-17
-7.299794947398e-20 -1.6930611763237058e-17 5.1628046768302494e-18
1.8028005759628998e-19 4.460769893449328e-17 -1.3679823569163679e-17
1.8904515371423998e-19 4.893378080251353e-17 -1.5090331347019218e-17
-3.857780163959e-20 -1.036375716422467e-17 3.2133111757838797e-18
-1.2928094906703e-19 -3.624685504515919e-17 1.129663433756656e-17
-7.777006835762e-20 -2.2302496218760797e-17 6.984802473297269e-18
-5.432895134668999e-20 -1.609586699505176e-17 5.06403048826869e-18
-7.276102456134e-20 -2.1461398628418e-17 6.7806621804897694e-18
2.080324268678e-20 5.02043233576864e-18 -1.59234725727388e-18
-3.7648238364285e-19 -7.462182215635947e-17 2.3750854229595017e-17
4.7555513373059997e-20 7.049473512739189e-18 -2.25073658764012e-18
-2.3127194860413e-19 -2.841240846460772e-17 9.09893005567696e-18
-3.4118772080771997e-19 -3.5732633125018406e-17 1.147059411906245e-17
1.34483254393885e-18 1.1365427068188967e-16 -3.655972790087837e-17
-1.8862336442098e-19 -1.2550991403204019e-17 4.0444477115082994e-18
1.58310430696823e-18 5.675531583724605e-17 -1.8316255015001038e-17

SCALARS Gamma float
LOOKUP_TABLE default
3.3853415752447785e-5
-0.0006378451535104091
-0.0001145636964910648
0.011484090950401081
0.04938363850244967
0.08945865765840177
0.13691612238802547
0.17923651910356095
0.22444960258240565
0.2569813417371252
0.276801513447087
0.2832638393199673
0.27862818587997584
0.2551145750643972
0.24435784252385548
0.23687046043350737
0.22729544530473506
0.2227482024197524
0.21889303432526194
0.21092334554434733
0.2101153228865932
0.20753253745498798
0.20287849147547976
0.19839353679080546
0.19438551617714303
0.19230662401744517
0.19202341984280744
0.19275838032050177
0.1936522214707339
0.1953053783559553
0.19373355472983247
0.20032465560953566
0.19808315356168998
0.19590125422150717
0.19356129413454273
0.1906598898660994
0.1872257786093918
0.1832699555098258
0.17890722904472597
0.17170745839279156
0.16597067568156162
0.15517218780595748
0.1394347416485129
0.11959940069021195
0.10323698717582887
0.08824332186576565
0.07603374002734785
0.06232565470798644
0.04925947544550271
0.027311848571058745
3.3853415752447785e-5
-0.0006378451535104091
-0.0001145636964910648
0.011484090950401081
0.04938363850244967
0.08945865765840177
0.13691612238802547
0.17923651910356095
0.22444960258240565
0.2569813417371252
0.276801513447087
0.2832638393199673
0.27862818587997584
0.2551145750643972
0.24435784252385548
0.23687046043350737
0.22729544530473506
0.2227482024197524
0.21889303432526194
0.21092334554434733
0.2101153228865932
0.20753253745498798
0.20287849147547976
0.19839353679080546
0.19438551617714303
0.19230662401744517
0.19202341984280744
0.19275838032050177
0.1936522214707339
0.1953053783559553
0.19373355472983247
0.20032465560953566
0.19808315356168998
0.19590125422150717
0.19356129413454273
0.1906598898660994
0.1872257786093918
0.1832699555098258
0.17890722904472597
0.17170745839279156
0.16597067568156162
0.15517218780595748
0.1394347416485129
0.11959940069021195
0.10323698717582887
0.08824332186576565
0.07603374002734785
0.06232565470798644
0.04925947544550271
0.027311848571058745

VECTORS Ftot float
0.00901127809126104 0.005343413905411739 0.014680909047918434
0.02498365967386113 0.015937014744229164 0.04378658814328454
0.031100549475405206 0.02983763394375207 0.0819782255104107
-0.09904181743551269 0.05802878886708201 0.15943278709060585
-0.6603501662091861 0.12315614285685891 0.3383687215663439
-1.4310114551600852 0.1979080840373346 0.5437479920200987
-2.521247838508837 0.28729860689205916 0.7893464350766941
-3.7036938227561316 0.3827684725950974 1.0516477353341542
-5.1324784321668915 0.48690460973358635 1.3377594206713794
-6.423004859774561 0.5730480765326401 1.5744366505353162
-7.491844969797614 0.6366523275356528 1.7491878939474157
-8.240928583115764 0.6701125736230624 1.8411191645219673
-8.656203743862996 0.6801621365324807 1.8687301116909825
-8.417205749085863 0.6425719750255982 1.7654519917571716
-8.529023422250877 0.6196590557727137 1.7024992634960852
-8.710713862104235 0.6018057683935031 1.6534477595586703
-8.774422366639405 0.5754993104445284 1.5811713603580304
-8.998020233105358 0.5580806668645547 1.533314030444525
-9.222648536557985 0.5473288457915789 1.5037736448285082
-9.236935101532314 0.5449751703837972 1.497306974792902
-9.548744116452875 0.5380684712923864 1.4783309749962836
-9.766927589607224 0.5191198879736684 1.4262701701974516
-9.859106263747101 0.4985423639107969 1.369733887486429
-9.93889399989928 0.4867231354069872 1.3372608240568378
-10.021774298834744 0.47295894158962476 1.2994440123466378
-10.186545738909803 0.4629349595550207 1.2719033480535444
-10.435276289611407 0.45212177767125317 1.2421943749954378
-10.73361050308922 0.43846752334288597 1.2046796195487586
-11.031018483914817 0.4238441321842277 1.1645021825444932
-11.365377745805302 0.40803443587213095 1.1210653989185728
-11.501504575196707 0.3891316159583489 1.0691303280414401
-12.119665793215063 0.3778769887834658 1.0382084940140688
-12.197120238822194 0.35454215002893463 0.9740965514493805
-12.262762950952782 0.33946306332431925 0.9326671012224517
-12.304247052204419 0.32709765372314215 0.8986934175609106
-12.295759871555388 0.31564535593942233 0.8672284879992704
-12.237860285547855 0.309564185041367 0.850520608273019
-12.130907454176024 0.30482431284388106 0.8374979164393258
-11.982159091345126 0.2973477296664065 0.8169561729845403
-11.626251642642236 0.29055295098412437 0.7982876719847788
-11.35245258668632 0.2825890371543356 0.776406998566952
-10.713482464633477 0.2752865085221305 0.7563434660450479
-9.708498917608663 0.31288934638295485 0.8596564139750749
-8.391952627932298 0.3372969598431978 0.9267157808198686
-7.294164262584781 0.40072491125472837 1.1009826450853117
-6.27560198915945 0.4252099645154389 1.1682547760332571
-5.438004082689235 0.4399309790971916 1.2087004311880845
-4.479726735979053 0.4561498513905461 1.2532614165830935
-3.555842286492448 0.46611004066798234 1.2806268117163433
-1.978572636114574 0.4869986191576679 1.3380177094412595
0.00901127809126104 0.005343413905411739 0.014680909047918434
0.02498365967386113 0.015937014744229164 0.04378658814328454
0.031100549475405206 0.02983763394375207 0.0819782255104107
-0.09904181743551269 0.05802878886708201 0.15943278709060585
-0.6603501662091861 0.12315614285685891 0.3383687215663439
-1.4310114551600852 0.1979080840373346 0.5437479920200987
-2.521247838508837 0.28729860689205916 0.7893464350766941
-3.7036938227561316 0.3827684725950974 1.0516477353341542
-5.1324784321668915 0.48690460973358635 1.3377594206713794
-6.423004859774561 0.5730480765326401 1.5744366505353162
-7.491844969797614 0.6366523275356528 1.7491878939474157
-8.240928583115764 0.6701125736230624 1.8411191645219673
-8.656203743862996 0.6801621365324807 1.8687301116909825
-8.417205749085863 0.6425719750255982 1.7654519917571716
-8.529023422250877 0.6196590557727137 1.7024992634960852
-8.710713862104235 0.6018057683935031 1.6534477595586703
-8.774422366639405 0.5754993104445284 1.5811713603580304
-8.998020233105358 0.5580806668645547 1.533314030444525
-9.222648536557985 0.5473288457915789 1.5037736448285082
-9.236935101532314 0.5449751703837972 1.497306974792902
-9.548744116452875 0.5380684712923864 1.4783309749962836
-9.766927589607224 0.5191198879736684 1.4262701701974516
-9.859106263747101 0.4985423639107969 1.369733887486429
-9.93889399989928 0.4867231354069872 1.3372608240568378
-10.021774298834744 0.47295894158962476 1.2994440123466378
-10.186545738909803 0.4629349595550207 1.2719033480535444
-10.435276289611407 0.45212177767125317 1.2421943749954378
-10.73361050308922 0.43846752334288597 1.2046796195487586
-11.031018483914817 0.4238441321842277 1.1645021825444932
-11.365377745805302 0.40803443587213095 1.1210653989185728
-11.501504575196707 0.3891316159583489 1.0691303280414401
-12.119665793215063 0.3778769887834658 1.0382084940140688
-12.197120238822194 0.35454215002893463 0.9740965514493805
-12.262762950952782 0.33946306332431925 0.9326671012224517
-12.304247052204419 0.32709765372314215 0.8986934175609106
-12.295759871555388 0.31564535593942233 0.8672284879992704
-12.237860285547855 0.309564185041367 0.850520608273019
-12.130907454176024 0.30482431284388106 0.8374979164393258
-11.982159091345126 0.2973477296664065 0.8169561729845403
-11.626251642642236 0.29055295098412437 0.7982876719847788
-11.35245258668632 0.2825890371543356 0.776406998566952
-10.713482464633477 0.2752865085221305 0.7563434660450479
-9.708498917608663 0.31288934638295485 0.8596564139750749
-8.391952627932298 0.3372969598431978 0.9267157808198686
-7.294164262584781 0.40072491125472837 1.1009826450853117
-6.27560198915945 0.4252099645154389 1.1682547760332571
-5.438004082689235 0.4399309790971916 1.2087004311880845
-4.479726735979053 0.4561498513905461 1.2532614165830935
-3.555842286492448 0.46611004066798234 1.2806268117163433
-1.978572636114574 0.4869986191576679 1.3380177094412595

VECTORS D float
0.009167871632734548 0.005760991762495231 0.014414419503849247
0.020339943891044526 0.01787652139805702 0.04511176972309334
0.029980729165576626 0.03189606925795791 0.0815849795218737
0.03859590382352505 0.04593408886545003 0.11969151296154189
0.04562371175580668 0.05828011763428537 0.15521361993584823
0.050862625458716997 0.0682106464838396 0.18590766870802425
0.052365695400893905 0.07291657591988358 0.20328385032329568
0.057852264525388816 0.08293049399506082 0.23644091684534418
0.06154592053229979 0.09051217693222541 0.2643955958676257
0.06520658506883195 0.09851766030276059 0.29387442243320583
0.06901462338117932 0.10747991806380586 0.3268895540449139
0.07122442712890041 0.11489034624801836 0.35558942191816495
0.074088441414726 0.12438409007540933 0.39090000354202364
0.0728719754713622 0.12781826527184628 0.407004045229974
0.06811585352363438 0.12514925683415948 0.4030175604338548
0.06386138777732198 0.12294539052011909 0.40012160957244375
0.0586743491215616 0.11867211873140357 0.38938477300936347
0.053829277812563796 0.11430995691945786 0.37776645518675694
0.0515643190310189 0.11486694134301528 0.3820342849288156
0.05529886455106401 0.12911632471769155 0.4319103383349815
0.0526251118077576 0.12873455891024446 0.4329173700817137
0.04744862781375386 0.12164723768414527 0.4110847330100083
0.04448261762513038 0.12181632953510631 0.4121096229366766
0.04339168385095584 0.12544264954156412 0.42524096122024874
0.04169041626457921 0.12775915939289773 0.4336408032297226
0.04033748579512684 0.1317642997101466 0.4474198598109618
0.038291494198362155 0.134242930476158 0.45560959197610756
0.03560430484802634 0.1355549540717314 0.4593568077823251
0.03284082651849596 0.1362210811203262 0.46038898879659274
0.02991509632442605 0.13624175797524002 0.4588708266296374
0.02733516214330591 0.13777903327854235 0.46211982673935714
0.024719721804231938 0.1402807531767933 0.4681771743541318
0.021819118677341775 0.1393754608169979 0.46258419194354833
0.019989165882715963 0.14478354657769488 0.4777966106989735
0.01835159956802165 0.15183336639392384 0.498173293249197
0.016703493996329408 0.15905071331561516 0.5188588585132617
0.015393783576805068 0.1700270354051244 0.5515436082748518
0.014022477067583802 0.1811536699717601 0.5844356486502134
0.012379364198980064 0.188707041113863 0.6056350039104968
0.010815606509007447 0.1963511745258747 0.6270703394426089
0.009198241044284065 0.20083044014397536 0.6384321325463874
0.007747157667495928 0.20556901536293118 0.650727341671794
0.0076356463038266984 0.24908714596501805 0.785434208849278
0.006885928764774195 0.2798101452101326 0.8792330213651718
0.006667986122284469 0.3428973448431483 1.0741207402232598
0.004951481441657251 0.37104703432185987 1.158760972221921
0.003790437288251439 0.3878567310926903 1.208345041590239
0.002724952008584509 0.4052576725019438 1.2599363413064033
0.001717607725064032 0.4162935312542912 1.2919490831991172
0.0008431499425351838 0.43663302223900263 1.353037498994983
0.009167871632734548 0.005760991762495231 0.014414419503849247
0.020339943891044526 0.01787652139805702 0.04511176972309334
0.029980729165576626 0.03189606925795791 0.0815849795218737
0.03859590382352505 0.04593408886545003 0.11969151296154189
0.04562371175580668 0.05828011763428537 0.15521361993584823
0.050862625458716997 0.0682106464838396 0.18590766870802425
0.052365695400893905 0.07291657591988358 0.20328385032329568
0.057852264525388816 0.08293049399506082 0.23644091684534418
0.06154592053229979 0.09051217693222541 0.2643955958676257
0.06520658506883195 0.09851766030276059 0.29387442243320583
0.06901462338117932 0.10747991806380586 0.3268895540449139
0.07122442712890041 0.11489034624801836 0.35558942191816495
0.074088441414726 0.12438409007540933 0.39090000354202364
0.0728719754713622 0.12781826527184628 0.407004045229974
0.06811585352363438 0.12514925683415948 0.4030175604338548
0.06386138777732198 0.12294539052011909 0.40012160957244375
0.0586743491215616 0.11867211873140357 0.38938477300936347
0.053829277812563796 0.11430995691945786 0.37776645518675694
0.0515643190310189 0.11486694134301528 0.3820342849288156
0.05529886455106401 0.12911632471769155 0.4319103383349815
0.0526251118077576 0.12873455891024446 0.4329173700817137
0.04744862781375386 0.12164723768414527 0.4110847330100083
0.04448261762513038 0.12181632953510631 0.4121096229366766
0.04339168385095584 0.12544264954156412 0.42524096122024874
0.04169041626457921 0.12775915939289773 0.4336408032297226
0.04033748579512684 0.1317642997101466 0.4474198598109618